ITEM: TIMESTEP
100000
ITEM: NUMBER OF ATOMS
2048
ITEM: BOX BOUNDS pp pp pp
0.0000000000000000e+00 1.1635780856594225e+01
0.0000000000000000e+00 1.1635780856594225e+01
0.0000000000000000e+00 1.1635780856594225e+01
ITEM: ATOMS id type xs ys zs
82 1 0.549723 0.314328 0.0106341
530 1 0.562091 0.0626779 0.487901
74 1 0.31064 0.308554 0.00359248
525 1 0.376331 0.00153566 0.498562
27 1 0.809545 0.000451549 0.0581634
32 1 0.874745 0.0541131 0.0648636
8 1 0.125687 0.0608465 0.0599418
45 1 0.381601 0.12155 0.00781498
638 1 0.938461 0.434172 0.493775
1553 1 0.500375 0.493095 0.498777
399 1 0.442157 0.000115584 0.437381
63 1 0.939205 0.121936 0.0588158
1039 1 0.432508 0.497663 0.0657866
633 1 0.750066 0.373261 0.494204
43 1 0.311208 0.117187 0.0676873
47 1 0.440543 0.130843 0.0628552
51 1 0.568484 0.126861 0.0673124
55 1 0.695108 0.13546 0.0656423
526 1 0.429151 0.0662813 0.485535
36 1 0.99572 0.193339 0.060678
78 1 0.433041 0.317452 0.0137807
413 1 0.873855 0.000706921 0.372074
52 1 0.503599 0.182221 0.056016
1051 1 0.81217 0.497763 0.0624562
56 1 0.628675 0.187952 0.0627432
87 1 0.69268 0.251197 0.0654937
60 1 0.766594 0.186262 0.0597091
67 1 0.050332 0.25534 0.0571115
117 1 0.62046 0.381047 0.00613321
118 1 0.684157 0.43455 -0.000208424
83 1 0.563937 0.241745 0.0651273
585 1 0.246735 0.253164 0.49894
91 1 0.816869 0.252921 0.0610064
68 1 0.990927 0.320782 0.0575986
72 1 0.110676 0.316853 0.0528165
630 1 0.682514 0.435679 0.491928
107 1 0.311774 0.381964 0.0561828
80 1 0.368955 0.322286 0.0629349
391 1 0.19691 0.00150018 0.443701
84 1 0.49236 0.314475 0.0710842
88 1 0.621045 0.313055 0.0609634
123 1 0.807091 0.37479 0.058758
96 1 0.876072 0.323171 0.0578903
113 1 0.493548 0.373387 0.00227884
1421 1 0.371442 0.496261 0.381678
1561 1 0.746657 0.491883 0.493922
1049 1 0.743838 0.492443 0.00889391
558 1 0.428921 0.189628 0.49182
116 1 0.499549 0.442019 0.0575649
120 1 0.622209 0.440252 0.0675767
119 1 0.686423 0.377697 0.0644277
554 1 0.309857 0.190262 0.496534
1167 1 0.428565 0.497616 0.191233
112 1 0.367231 0.445468 0.0600085
1565 1 0.873287 0.492192 0.494038
1297 1 0.500786 0.494244 0.249785
85 1 0.630582 0.251615 0.00210379
124 1 0.746201 0.434624 0.0685971
1301 1 0.623385 0.495392 0.245424
634 1 0.8131 0.431062 0.494701
134 1 0.181652 0.0572753 0.125226
1305 1 0.752222 0.496867 0.261359
138 1 0.309831 0.0634634 0.126035
22 1 0.691255 0.0712244 0.0139793
142 1 0.43341 0.0727609 0.123973
20 1 0.50603 0.0660681 0.0609864
24 1 0.629267 0.0690325 0.067516
150 1 0.688775 0.0713374 0.135297
1419 1 0.299168 0.496693 0.435426
279 1 0.689698 0.0120294 0.320914
265 1 0.252337 0.00705772 0.251092
130 1 0.0591183 0.0610989 0.126143
39 1 0.18588 0.131232 0.0595872
12 1 0.245932 0.0646234 0.0615718
16 1 0.378015 0.0612131 0.0592043
181 1 0.628618 0.128261 0.126091
28 1 0.74745 0.0554653 0.0734844
154 1 0.81237 0.0622268 0.122768
4 1 0.997543 0.058927 0.0667054
35 1 0.0548882 0.129898 0.052815
40 1 0.119081 0.191741 0.0561157
169 1 0.247257 0.122097 0.120557
170 1 0.311969 0.184962 0.130577
177 1 0.503157 0.126954 0.131696
59 1 0.813516 0.117337 0.0618456
166 1 0.181439 0.197639 0.119075
44 1 0.252565 0.183853 0.0636844
48 1 0.370806 0.190579 0.0707462
79 1 0.430188 0.250922 0.0735553
209 1 0.501512 0.254198 0.123592
178 1 0.570887 0.190281 0.130339
182 1 0.691236 0.189771 0.126333
217 1 0.748898 0.249048 0.126508
64 1 0.886901 0.19002 0.0514771
194 1 0.0632283 0.312173 0.113793
197 1 0.114742 0.250598 0.122303
71 1 0.177463 0.257769 0.0639824
201 1 0.243392 0.255855 0.109184
75 1 0.313312 0.251627 0.0627377
210 1 0.556214 0.319318 0.122581
95 1 0.932718 0.25684 0.0602789
198 1 0.174577 0.314842 0.125456
76 1 0.238496 0.324327 0.0594102
241 1 0.489492 0.381207 0.123467
115 1 0.5618 0.383321 0.069237
92 1 0.750033 0.311631 0.0690191
218 1 0.81717 0.311041 0.133981
222 1 0.936161 0.324941 0.123376
99 1 0.0530343 0.376226 0.052792
104 1 0.126188 0.445376 0.0563838
103 1 0.18208 0.382232 0.0616245
237 1 0.361985 0.381434 0.126446
111 1 0.431054 0.383627 0.066485
238 1 0.427424 0.438853 0.128553
242 1 0.564411 0.445429 0.131269
245 1 0.628802 0.377789 0.126315
249 1 0.759248 0.375949 0.127722
250 1 0.818409 0.448707 0.128738
127 1 0.93437 0.382199 0.0601791
108 1 0.248725 0.437094 0.0579997
582 1 0.18853 0.311228 0.496516
1425 1 0.506079 0.498889 0.376649
128 1 0.878563 0.445841 0.0660983
100 1 -0.000544866 0.445483 0.0535593
1045 1 0.620514 0.495702 0.00568662
146 1 0.572834 0.0605399 0.132003
152 1 0.62909 0.0653824 0.196492
546 1 0.0654222 0.180528 0.497378
50 1 0.569311 0.18167 -0.000642299
533 1 0.622362 0.00270219 0.500998
144 1 0.373519 0.063333 0.183767
148 1 0.494572 0.0618888 0.183271
156 1 0.757625 0.0634746 0.185819
189 1 0.879044 0.121323 0.115981
158 1 0.938213 0.0603745 0.121913
161 1 0.993703 0.127933 0.119897
162 1 0.0564849 0.184093 0.124985
165 1 0.129288 0.124487 0.120676
173 1 0.376033 0.12801 0.125929
175 1 0.441204 0.12646 0.190178
179 1 0.568489 0.122642 0.198262
183 1 0.680901 0.129624 0.193367
185 1 0.752618 0.122845 0.127021
187 1 0.81548 0.119951 0.180839
192 1 0.880284 0.1883 0.179133
168 1 0.123526 0.18431 0.178923
199 1 0.184814 0.243478 0.182983
205 1 0.369945 0.25222 0.12635
174 1 0.441801 0.183367 0.123972
180 1 0.507673 0.187707 0.188431
184 1 0.630841 0.191967 0.188163
186 1 0.825188 0.185338 0.121524
190 1 0.938854 0.191572 0.121927
193 1 0.998683 0.246792 0.125185
196 1 0.00869689 0.312583 0.179201
208 1 0.369418 0.318199 0.182456
206 1 0.425888 0.317333 0.124235
213 1 0.624603 0.253197 0.11931
214 1 0.692703 0.31848 0.125925
215 1 0.680448 0.253183 0.186127
220 1 0.75184 0.312544 0.184546
221 1 0.879582 0.252932 0.124495
225 1 0.00388978 0.379456 0.119638
227 1 0.0615967 0.376655 0.180788
204 1 0.234037 0.309579 0.180748
202 1 0.307702 0.31259 0.12259
239 1 0.42778 0.379042 0.186953
212 1 0.492264 0.323498 0.183199
216 1 0.630603 0.321138 0.185457
224 1 0.882312 0.320761 0.186126
226 1 0.0543514 0.439155 0.122941
229 1 0.118079 0.383016 0.121216
231 1 0.178881 0.374064 0.182789
233 1 0.242087 0.370963 0.126385
235 1 0.306039 0.371741 0.18565
240 1 0.364469 0.436512 0.187729
244 1 0.499737 0.438661 0.185748
247 1 0.695538 0.375588 0.190753
251 1 0.820219 0.376552 0.186347
256 1 0.882617 0.43826 0.184409
253 1 0.879331 0.386 0.123936
254 1 0.939004 0.440301 0.12445
232 1 0.121097 0.439288 0.182184
230 1 0.183818 0.437545 0.125954
236 1 0.242103 0.439335 0.188331
234 1 0.303183 0.44077 0.129091
622 1 0.446331 0.429231 0.499612
1047 1 0.685176 0.495489 0.0648025
246 1 0.689326 0.43445 0.130331
42 1 0.314116 0.186817 0.00829069
252 1 0.750631 0.44032 0.196744
269 1 0.374722 0.00884368 0.247266
140 1 0.248213 0.0647605 0.18804
266 1 0.314562 0.0641426 0.244605
73 1 0.245073 0.251661 0.00630263
512 1 0.870489 0.439685 0.433232
274 1 0.561787 0.0578531 0.250317
626 1 0.565265 0.430149 0.490597
61 1 0.869397 0.124857 -0.000796225
136 1 0.120027 0.0657477 0.187295
301 1 0.370343 0.125605 0.247358
278 1 0.693889 0.06488 0.248989
160 1 0.874994 0.0586872 0.178634
191 1 0.936606 0.117384 0.181095
132 1 0.00303105 0.0560806 0.180917
290 1 0.0592003 0.18865 0.2509
163 1 0.0523124 0.119404 0.181561
167 1 0.182668 0.12265 0.185609
171 1 0.314418 0.128472 0.189937
305 1 0.500384 0.121748 0.25296
309 1 0.631304 0.135674 0.256335
313 1 0.759347 0.118719 0.243679
317 1 0.877612 0.12482 0.248303
172 1 0.244716 0.186701 0.183549
176 1 0.383398 0.190827 0.180662
306 1 0.563379 0.190812 0.245352
188 1 0.748854 0.189175 0.181371
219 1 0.818112 0.245941 0.181482
318 1 0.937467 0.193495 0.247476
164 1 0.995885 0.182513 0.182343
195 1 0.0550581 0.239684 0.186956
329 1 0.249123 0.247962 0.256491
203 1 0.299319 0.25196 0.177012
207 1 0.440836 0.254638 0.177132
334 1 0.430909 0.311269 0.243499
211 1 0.564393 0.260515 0.17742
341 1 0.620729 0.260845 0.242386
223 1 0.938935 0.256609 0.188688
200 1 0.119804 0.312957 0.189669
357 1 0.121739 0.371951 0.245313
326 1 0.181914 0.312569 0.258048
330 1 0.311442 0.310376 0.24366
373 1 0.624674 0.373152 0.248034
342 1 0.691223 0.315827 0.247539
228 1 0.998612 0.444489 0.193752
365 1 0.362422 0.377868 0.245526
366 1 0.431303 0.437338 0.248962
243 1 0.568339 0.376439 0.181423
248 1 0.63008 0.434171 0.189359
377 1 0.75661 0.374487 0.247233
381 1 0.874287 0.372766 0.252008
255 1 0.940591 0.378945 0.189867
358 1 0.180173 0.445574 0.251731
362 1 0.306569 0.438291 0.241647
1557 1 0.623833 0.495173 0.493676
374 1 0.688435 0.440002 0.251492
393 1 0.25188 0.00169189 0.373976
258 1 0.0681834 0.0632953 0.25314
264 1 0.116077 0.0654917 0.313969
262 1 0.186538 0.0577614 0.245499
272 1 0.374711 0.0654621 0.301574
270 1 0.446958 0.0578013 0.252936
276 1 0.499736 0.0694511 0.317141
284 1 0.763487 0.0656444 0.312369
1035 1 0.303985 0.498461 0.0631134
286 1 0.93496 0.0649483 0.249646
289 1 0.996706 0.119249 0.243645
293 1 0.126637 0.124185 0.247939
268 1 0.252798 0.0654652 0.311653
307 1 0.565277 0.123913 0.301856
280 1 0.626424 0.0679162 0.310068
282 1 0.821892 0.0537396 0.243034
288 1 0.873478 0.0647697 0.308406
319 1 0.93343 0.124028 0.305102
294 1 0.187516 0.194796 0.252287
297 1 0.252206 0.132333 0.247988
299 1 0.309826 0.130746 0.314327
311 1 0.69277 0.12595 0.309049
314 1 0.818345 0.185641 0.239946
323 1 0.0694102 0.247566 0.317169
296 1 0.124791 0.185676 0.312191
298 1 0.311428 0.193352 0.242122
302 1 0.434079 0.188489 0.246249
337 1 0.496159 0.255434 0.245544
312 1 0.620338 0.199592 0.306048
310 1 0.693759 0.187261 0.250783
316 1 0.753448 0.184674 0.306838
320 1 0.881375 0.18356 0.322103
322 1 0.0553557 0.319533 0.250491
325 1 0.123625 0.248115 0.250339
327 1 0.191209 0.249271 0.31393
333 1 0.366007 0.250411 0.233562
338 1 0.555044 0.312513 0.243309
344 1 0.625549 0.313978 0.311387
343 1 0.695018 0.255799 0.302532
345 1 0.756403 0.249471 0.242663
349 1 0.873618 0.24607 0.246638
351 1 0.936288 0.24934 0.313843
321 1 0.996458 0.257242 0.257264
353 1 0.996714 0.375959 0.249509
359 1 0.176349 0.376305 0.311661
332 1 0.247821 0.318888 0.306566
336 1 0.366303 0.317581 0.303633
340 1 0.488546 0.315793 0.2999
346 1 0.814032 0.310496 0.247449
350 1 0.933867 0.310343 0.248958
383 1 0.931341 0.366494 0.312056
355 1 0.0592367 0.37889 0.308948
361 1 0.244649 0.373385 0.244945
363 1 0.307009 0.375874 0.314674
369 1 0.489436 0.378448 0.240988
370 1 0.564201 0.43939 0.246563
376 1 0.626711 0.43749 0.302794
375 1 0.690963 0.37164 0.312025
382 1 0.935592 0.446135 0.256921
57 1 0.754947 0.124233 0.000776398
354 1 0.0629676 0.436962 0.247763
15 1 0.438182 0.00394982 0.061921
10 1 0.298359 0.0644722 0.00126845
121 1 0.745115 0.374599 0.00468123
569 1 0.751863 0.121265 0.493644
590 1 0.436502 0.309859 0.488443
407 1 0.696666 0.00397737 0.421122
378 1 0.81739 0.437591 0.254381
492 1 0.243883 0.43171 0.450798
19 1 0.568827 0.00404009 0.0601602
398 1 0.439022 0.0612989 0.371015
594 1 0.568144 0.310383 0.498707
402 1 0.56354 0.0594373 0.370715
410 1 0.814898 0.0576826 0.376426
414 1 0.934213 0.0613532 0.368923
295 1 0.185273 0.126429 0.306916
394 1 0.308806 0.0666852 0.372112
429 1 0.374869 0.129999 0.364241
315 1 0.81767 0.135626 0.309896
260 1 0.998788 0.0626314 0.303839
291 1 0.0551894 0.129279 0.30217
303 1 0.433435 0.125491 0.306506
308 1 0.498338 0.191836 0.305289
434 1 0.559781 0.195097 0.363792
442 1 0.811372 0.189842 0.371345
445 1 0.875756 0.124221 0.377479
422 1 0.185801 0.184717 0.371544
300 1 0.248525 0.190121 0.317376
304 1 0.375379 0.19115 0.299906
335 1 0.431998 0.250404 0.301648
339 1 0.558402 0.26167 0.312124
438 1 0.688055 0.183357 0.370554
477 1 0.877397 0.251387 0.374173
292 1 0.00302431 0.188832 0.323407
449 1 0.99893 0.254465 0.375264
328 1 0.119722 0.319848 0.315525
457 1 0.253621 0.252485 0.376708
331 1 0.317919 0.250365 0.309732
469 1 0.634638 0.2548 0.371405
470 1 0.693142 0.31383 0.376308
347 1 0.817449 0.244224 0.306425
478 1 0.934443 0.312815 0.378614
324 1 0.997929 0.313232 0.316692
458 1 0.307461 0.315629 0.368092
367 1 0.430101 0.375976 0.307415
497 1 0.499817 0.371266 0.367784
371 1 0.553448 0.371876 0.299253
466 1 0.564189 0.32268 0.370338
348 1 0.754544 0.317312 0.309133
352 1 0.867246 0.308487 0.31125
481 1 0.99484 0.372527 0.376344
356 1 0.997858 0.429638 0.317048
360 1 0.120156 0.440627 0.311058
364 1 0.247589 0.433549 0.30273
490 1 0.311526 0.441923 0.373792
368 1 0.367848 0.433854 0.312068
372 1 0.488383 0.432263 0.305639
498 1 0.556717 0.43469 0.358589
501 1 0.62984 0.377094 0.370442
505 1 0.746545 0.373488 0.373206
379 1 0.814756 0.372136 0.313322
1431 1 0.680735 0.496179 0.429057
514 1 0.0540065 0.0612551 0.488984
380 1 0.753805 0.431392 0.310728
384 1 0.874514 0.438876 0.317366
389 1 0.130287 0.000967671 0.382979
386 1 0.0601597 0.0514687 0.37748
49 1 0.494099 0.119324 -0.000773479
390 1 0.196318 0.0570632 0.369962
38 1 0.18816 0.190499 0.00152548
86 1 0.68453 0.314698 0.00727217
404 1 0.500093 0.0626352 0.430412
408 1 0.632775 0.0609876 0.429645
406 1 0.690233 0.0774992 0.370322
496 1 0.365859 0.43184 0.43547
388 1 0.990802 0.0625313 0.428781
419 1 0.0554837 0.122415 0.43468
425 1 0.248477 0.129715 0.374481
400 1 0.374612 0.0683441 0.423532
431 1 0.437893 0.127767 0.423948
435 1 0.573554 0.12809 0.43256
437 1 0.620687 0.139527 0.367323
443 1 0.808144 0.123446 0.437002
447 1 0.941163 0.12374 0.449573
418 1 0.072331 0.188341 0.374676
421 1 0.128753 0.123646 0.370089
423 1 0.18162 0.13073 0.443063
428 1 0.248157 0.181139 0.442424
430 1 0.439981 0.191895 0.362098
433 1 0.500817 0.132638 0.36646
441 1 0.757647 0.129856 0.371433
417 1 0.994003 0.120354 0.369376
424 1 0.128517 0.19248 0.441852
426 1 0.311972 0.190271 0.373177
465 1 0.497608 0.250336 0.364551
467 1 0.568729 0.254978 0.431062
473 1 0.752163 0.247692 0.367559
446 1 0.93754 0.1902 0.38235
453 1 0.124576 0.251421 0.380983
455 1 0.19406 0.241638 0.433953
459 1 0.312809 0.250616 0.435597
461 1 0.376231 0.249241 0.374088
462 1 0.433712 0.311519 0.376348
474 1 0.809302 0.302824 0.372719
450 1 0.064353 0.313363 0.370026
485 1 0.126686 0.383288 0.379021
454 1 0.188724 0.3084 0.370183
489 1 0.248467 0.377698 0.373089
493 1 0.376233 0.377304 0.37288
480 1 0.86771 0.310911 0.432693
452 1 0.00872746 0.309049 0.436507
484 1 0.997483 0.436223 0.437825
483 1 0.0605619 0.376748 0.437293
486 1 0.190181 0.443324 0.373075
494 1 0.441078 0.438861 0.373861
499 1 0.564651 0.37282 0.43497
507 1 0.810349 0.374548 0.43948
509 1 0.87687 0.374397 0.375897
510 1 0.933217 0.433052 0.376292
23 1 0.680905 0.00217175 0.0672506
482 1 0.0574465 0.434758 0.378102
11 1 0.310937 0.0081156 0.0607328
488 1 0.125592 0.438807 0.439651
500 1 0.506812 0.432956 0.430768
277 1 0.626234 0.000528351 0.253003
504 1 0.624302 0.435065 0.425182
502 1 0.695021 0.433155 0.372681
506 1 0.811016 0.428482 0.373519
90 1 0.811064 0.311922 0.000805781
392 1 0.1399 0.0601547 0.435005
537 1 0.750989 0.000185093 0.485664
396 1 0.247381 0.0676807 0.435638
1439 1 0.937053 0.496091 0.435964
25 1 0.746686 -0.000166218 0.000263867
479 1 0.941579 0.252107 0.437381
412 1 0.750115 0.0642334 0.429822
122 1 0.810166 0.440206 0.00231689
562 1 0.571182 0.18996 0.493933
511 1 0.939117 0.379029 0.435545
625 1 0.501958 0.366743 0.50015
456 1 0.117663 0.312149 0.438185
439 1 0.690781 0.126126 0.439438
538 1 0.810585 0.0572724 0.497001
416 1 0.874959 0.0573526 0.442464
503 1 0.690386 0.37418 0.434518
561 1 0.507793 0.127011 0.484825
427 1 0.314677 0.120161 0.438447
432 1 0.370413 0.186194 0.434659
491 1 0.308584 0.371438 0.432686
281 1 0.755104 0.00304837 0.25135
440 1 0.624375 0.191422 0.4281
444 1 0.756541 0.186187 0.43535
1309 1 0.870746 0.500615 0.259562
448 1 0.877381 0.175486 0.442219
420 1 0.999905 0.181257 0.446452
451 1 0.0614084 0.244368 0.442869
487 1 0.187393 0.37166 0.433237
495 1 0.444176 0.375354 0.43028
508 1 0.749307 0.433877 0.4348
463 1 0.446804 0.247792 0.429276
436 1 0.50079 0.187342 0.425512
472 1 0.629503 0.314042 0.430078
475 1 0.817131 0.244754 0.43245
476 1 0.754392 0.31709 0.435103
460 1 0.249579 0.306403 0.438198
1429 1 0.620143 0.495254 0.363445
464 1 0.375108 0.319262 0.436534
468 1 0.505344 0.309522 0.424094
471 1 0.701014 0.25407 0.440603
565 1 0.626965 0.121787 0.495707
629 1 0.628118 0.370875 0.490883
267 1 0.318062 0.00138156 0.304384
37 1 0.121927 0.122395 0.00175073
89 1 0.755811 0.24786 -0.000460439
1413 1 0.121149 0.495808 0.376209
397 1 0.375969 0.00467786 0.366136
1179 1 0.811803 0.497415 0.196992
598 1 0.695462 0.314517 0.501265
81 1 0.496064 0.255358 0.0106802
114 1 0.561375 0.44297 0.00048565
1307 1 0.806384 0.496781 0.32033
395 1 0.316561 0.000357072 0.429351
139 1 0.30802 0.00146359 0.189451
597 1 0.637223 0.254214 0.495627
534 1 0.687982 0.0600197 0.493855
1433 1 0.747785 0.498051 0.377643
1411 1 0.0615157 0.493994 0.431979
1435 1 0.810782 0.497958 0.434631
1155 1 0.0620881 0.500303 0.188237
1415 1 0.188384 0.49923 0.435946
518 1 0.196982 0.0630339 0.498844
593 1 0.502633 0.246207 0.491167
405 1 0.620874 0.00187425 0.372479
263 1 0.190331 0.00120763 0.30349
1157 1 0.126886 0.498481 0.125111
1043 1 0.564791 0.498405 0.0648058
145 1 0.50079 0.00348753 0.124206
77 1 0.37189 0.254568 0.000961484
1033 1 0.251101 0.497674 0.00246458
553 1 0.256303 0.124153 0.497487
26 1 0.815503 0.060606 0.00315567
609 1 0.0111414 0.364312 0.498027
529 1 0.502089 0.0037965 0.495224
1029 1 0.125275 0.497634 0.991913
925 1 0.867141 0.00158095 0.866106
70 1 0.172065 0.315781 0.994165
566 1 0.695932 0.18677 0.50016
793 1 0.741267 0.00202149 0.74413
773 1 0.124389 0.00339121 0.753047
547 1 0.0686139 0.122887 0.56394
555 1 0.315376 0.127932 0.56696
53 1 0.634147 0.13051 0.998874
1665 1 0.00315383 0.497203 0.621236
567 1 0.687048 0.124001 0.564122
571 1 0.811047 0.123666 0.560731
552 1 0.129396 0.188294 0.565041
551 1 0.203236 0.122916 0.568747
523 1 0.322263 0.00669204 0.563766
659 1 0.564433 0.00366495 0.685269
614 1 0.181116 0.44221 0.501585
556 1 0.256057 0.184203 0.560461
587 1 0.306851 0.248614 0.558795
98 1 0.065304 0.440102 0.996139
560 1 0.371041 0.193719 0.575754
564 1 0.504104 0.183596 0.556736
595 1 0.569294 0.246154 0.55895
1667 1 0.0685741 0.491323 0.68035
69 1 0.112577 0.253767 0.99693
2 1 0.0576054 0.0641843 0.999388
1793 1 0.99598 0.494491 0.75537
581 1 0.133494 0.247517 0.507015
579 1 0.0713509 0.248314 0.566922
58 1 0.819709 0.190709 0.99801
592 1 0.389624 0.30812 0.568476
94 1 0.93454 0.322832 0.995179
596 1 0.492674 0.306776 0.55827
1689 1 0.748214 0.499701 0.616001
1551 1 0.441354 0.489844 0.554549
607 1 0.935873 0.247859 0.561031
580 1 0.00235361 0.310775 0.562771
588 1 0.256298 0.314973 0.568276
623 1 0.442541 0.3699 0.560671
611 1 0.0672386 0.372843 0.56063
578 1 0.0699357 0.303058 0.508107
616 1 0.122171 0.437776 0.563531
615 1 0.18 0.376482 0.569122
601 1 0.752667 0.25762 0.507353
619 1 0.316836 0.375799 0.561846
624 1 0.373333 0.437168 0.559288
628 1 0.511021 0.428702 0.555981
627 1 0.569061 0.368698 0.566545
14 1 0.442333 0.0586697 1.00003
632 1 0.628821 0.428513 0.563926
631 1 0.690421 0.376642 0.56375
33 1 0.99972 0.123211 0.987553
635 1 0.81048 0.372018 0.560631
621 1 0.37531 0.377143 0.500373
612 1 0.00415111 0.439388 0.56606
126 1 0.941247 0.442337 0.995732
30 1 0.940556 0.063286 0.999136
663 1 0.683553 -0.00117839 0.681748
605 1 0.873969 0.24316 0.5032
102 1 0.192673 0.439779 0.998643
636 1 0.753197 0.430682 0.560316
791 1 0.690907 0.00177175 0.814534
516 1 0.00210962 0.0624318 0.559391
515 1 0.0697049 0.0108864 0.559917
520 1 0.138562 0.0615643 0.564995
1945 1 0.741575 0.494249 0.876016
1555 1 0.558411 0.498011 0.556944
34 1 0.0523015 0.192532 0.997368
109 1 0.372789 0.377169 0.993896
536 1 0.623855 0.0643921 0.562978
540 1 0.760286 0.0542389 0.559381
544 1 0.873935 0.0628768 0.561443
673 1 0.00536895 0.118404 0.625014
677 1 0.137286 0.129954 0.628724
524 1 0.254733 0.0592322 0.559703
650 1 0.321088 0.0601267 0.629675
528 1 0.378421 0.0698037 0.563448
532 1 0.496656 0.0698796 0.559577
563 1 0.562899 0.118934 0.548494
697 1 0.744815 0.122865 0.627091
575 1 0.93287 0.120434 0.571415
681 1 0.259801 0.124645 0.630283
682 1 0.31339 0.193532 0.637445
685 1 0.378326 0.120394 0.630067
559 1 0.431261 0.135557 0.558593
568 1 0.628276 0.184966 0.560689
694 1 0.684504 0.188592 0.627261
572 1 0.747846 0.175693 0.561228
576 1 0.870472 0.185016 0.56513
548 1 0.997653 0.188275 0.55993
702 1 0.94365 0.196248 0.624678
674 1 0.0726702 0.190627 0.625594
709 1 0.137761 0.23985 0.627194
583 1 0.194692 0.260343 0.568009
678 1 0.199043 0.180581 0.627064
713 1 0.252921 0.249332 0.631952
591 1 0.439118 0.243816 0.566352
599 1 0.687056 0.248088 0.561153
729 1 0.750439 0.247202 0.617694
603 1 0.815143 0.246656 0.563764
705 1 0.00662481 0.247657 0.620179
710 1 0.192036 0.315233 0.629791
717 1 0.38171 0.253743 0.636424
718 1 0.446165 0.308986 0.622224
721 1 0.504088 0.249172 0.62348
725 1 0.622999 0.247223 0.621663
730 1 0.819054 0.30652 0.619047
733 1 0.875249 0.249424 0.626767
737 1 0.991881 0.369204 0.627775
584 1 0.129806 0.305055 0.560779
745 1 0.256097 0.37346 0.631239
714 1 0.319828 0.307898 0.62339
600 1 0.638269 0.308755 0.560061
726 1 0.684778 0.308043 0.627653
604 1 0.75108 0.31396 0.566668
608 1 0.878459 0.305929 0.558913
742 1 0.190095 0.441922 0.617767
749 1 0.378267 0.373113 0.616169
754 1 0.564594 0.436574 0.62812
757 1 0.623838 0.376155 0.632161
761 1 0.749257 0.376446 0.624928
639 1 0.93965 0.376427 0.560695
1024 1 0.879596 0.446263 0.929711
620 1 0.254212 0.437405 0.567378
613 1 0.128923 0.375982 0.501849
550 1 0.190248 0.180929 0.507385
647 1 0.19588 0.00209845 0.687482
762 1 0.814215 0.442215 0.63241
640 1 0.87709 0.430639 0.552946
766 1 0.937036 0.433974 0.619396
646 1 0.196459 0.0525534 0.622361
652 1 0.253864 0.0637946 0.680789
903 1 0.182876 0.00511843 0.933417
660 1 0.501881 0.060405 0.689799
664 1 0.629819 0.0630113 0.686876
662 1 0.687753 0.0630697 0.617651
1020 1 0.747887 0.440709 0.943232
666 1 0.811994 0.0628372 0.629171
672 1 0.871616 0.0611889 0.687164
1947 1 0.807932 0.500011 0.929927
642 1 0.0662032 0.0551756 0.630133
648 1 0.133354 0.0628881 0.683415
679 1 0.198162 0.131241 0.693805
683 1 0.314191 0.135043 0.692123
656 1 0.37292 0.0704623 0.695425
654 1 0.442283 0.0617306 0.62784
658 1 0.560341 0.0594733 0.626789
693 1 0.626125 0.120226 0.625588
699 1 0.81484 0.120284 0.693703
670 1 0.939048 0.0612788 0.625311
675 1 0.0723886 0.123432 0.679545
680 1 0.12646 0.191225 0.692936
684 1 0.253608 0.191439 0.696584
688 1 0.377618 0.186156 0.694917
686 1 0.441661 0.184797 0.62616
689 1 0.499848 0.121009 0.624089
695 1 0.688157 0.123426 0.687161
698 1 0.812277 0.182249 0.622583
701 1 0.870525 0.120953 0.627324
690 1 0.559155 0.179517 0.619535
700 1 0.746826 0.18374 0.686406
711 1 0.19202 0.253272 0.693003
716 1 0.251722 0.310967 0.696081
715 1 0.314146 0.251351 0.693271
720 1 0.369351 0.315305 0.689765
723 1 0.559437 0.251428 0.691761
736 1 0.869672 0.310322 0.687494
734 1 0.934968 0.310514 0.620244
706 1 0.0667873 0.312104 0.619211
753 1 0.500838 0.370044 0.627449
722 1 0.563969 0.307316 0.616701
732 1 0.752559 0.310918 0.674672
763 1 0.807594 0.380268 0.683654
765 1 0.876159 0.3721 0.624305
738 1 0.0619082 0.433797 0.623245
741 1 0.125755 0.383176 0.627059
743 1 0.19276 0.385253 0.685598
746 1 0.31737 0.44287 0.632171
752 1 0.388132 0.435962 0.681571
751 1 0.437686 0.3738 0.690065
758 1 0.689205 0.432917 0.629815
764 1 0.752372 0.447484 0.684343
653 1 0.383514 -3.56907e-05 0.62428
750 1 0.445354 0.430891 0.613825
756 1 0.499943 0.442236 0.693195
781 1 0.374646 0.00340876 0.75116
18 1 0.559906 0.0656597 0.996733
1559 1 0.689465 0.497284 0.564422
768 1 0.870876 0.440535 0.694149
574 1 0.928819 0.184065 0.510358
1811 1 0.560009 0.497535 0.827115
786 1 0.574632 0.0648061 0.749033
668 1 0.750743 0.0680572 0.690311
770 1 0.0650635 0.0600474 0.75141
774 1 0.188739 0.0636297 0.74699
687 1 0.435736 0.128844 0.683663
817 1 0.504756 0.122858 0.750597
790 1 0.686338 0.0596792 0.75154
829 1 0.872696 0.127314 0.750941
644 1 0.00723358 0.0610964 0.687579
805 1 0.129767 0.131401 0.750064
691 1 0.567328 0.117269 0.690026
821 1 0.629729 0.120643 0.747416
703 1 0.937077 0.135061 0.680265
707 1 0.0667484 0.258711 0.689558
806 1 0.184819 0.192718 0.748861
841 1 0.242926 0.253052 0.756274
810 1 0.31569 0.183446 0.757513
692 1 0.504865 0.185514 0.684216
818 1 0.55575 0.190569 0.751442
696 1 0.622241 0.180719 0.689295
731 1 0.807886 0.2471 0.677296
704 1 0.872078 0.188413 0.6895
735 1 0.941864 0.245772 0.687257
676 1 0.0151192 0.188769 0.683358
708 1 0.00169137 0.314996 0.682069
834 1 0.056063 0.316891 0.746461
712 1 0.127835 0.324389 0.688115
837 1 0.12398 0.257175 0.747118
845 1 0.369545 0.249623 0.752233
719 1 0.448389 0.251059 0.686265
724 1 0.497028 0.314798 0.69222
853 1 0.618944 0.244778 0.745702
727 1 0.684893 0.24223 0.689844
858 1 0.801255 0.315833 0.744361
838 1 0.188371 0.319166 0.755631
747 1 0.313165 0.381848 0.693251
842 1 0.310197 0.31447 0.755222
755 1 0.559754 0.378392 0.690698
728 1 0.622123 0.3104 0.688033
885 1 0.625481 0.37201 0.747504
854 1 0.677021 0.304913 0.750887
767 1 0.931948 0.385618 0.688242
862 1 0.931735 0.315405 0.750425
739 1 0.0582247 0.37876 0.686075
744 1 0.126286 0.432544 0.69032
882 1 0.571403 0.434257 0.757388
760 1 0.625135 0.439725 0.685361
759 1 0.685644 0.365267 0.68712
889 1 0.736686 0.37205 0.749729
783 1 0.441707 0.0053612 0.824377
870 1 0.187189 0.443263 0.753273
748 1 0.253849 0.441356 0.68797
874 1 0.315697 0.440752 0.755343
878 1 0.443019 0.441139 0.758811
570 1 0.806538 0.184543 0.501904
779 1 0.315219 0.00879418 0.817253
740 1 0.996801 0.437955 0.69298
106 1 0.311197 0.443687 0.997789
46 1 0.433466 0.188604 1.00077
780 1 0.248663 0.057285 0.808382
93 1 0.872934 0.261084 0.999486
782 1 0.440934 0.063158 0.7485
6 1 0.184421 0.0663109 0.996203
1813 1 0.627042 0.49928 0.759269
794 1 0.805796 0.058834 0.750792
913 1 0.499557 0.00321889 0.878733
798 1 0.942894 0.0637162 0.738558
776 1 0.131519 0.06215 0.810852
807 1 0.1914 0.121936 0.81136
809 1 0.255213 0.125147 0.752189
778 1 0.312797 0.0648654 0.75036
784 1 0.380297 0.0577034 0.823278
813 1 0.378438 0.128771 0.757086
792 1 0.62746 0.0614868 0.808898
823 1 0.682681 0.125045 0.810157
825 1 0.750508 0.127311 0.748504
827 1 0.817611 0.123965 0.808588
831 1 0.936861 0.128277 0.807355
816 1 0.381526 0.188418 0.817737
819 1 0.565908 0.123834 0.814491
822 1 0.69165 0.184918 0.750468
826 1 0.808737 0.19471 0.744383
830 1 0.937252 0.188142 0.747465
801 1 0.00555989 0.131745 0.743675
802 1 0.0608946 0.195095 0.750343
814 1 0.44686 0.191868 0.7488
851 1 0.555727 0.24952 0.816523
824 1 0.617943 0.18847 0.810465
857 1 0.745168 0.250317 0.746566
833 1 0.997871 0.246681 0.747543
835 1 0.0573949 0.247794 0.820201
839 1 0.187521 0.257441 0.821719
846 1 0.436337 0.319908 0.759622
849 1 0.502087 0.25704 0.756145
852 1 0.497316 0.312094 0.822871
850 1 0.559344 0.314866 0.748566
855 1 0.678624 0.243105 0.811564
861 1 0.873669 0.247136 0.751058
869 1 0.121654 0.38039 0.753859
875 1 0.310423 0.379228 0.815597
848 1 0.374274 0.314686 0.815363
881 1 0.501021 0.373408 0.753912
883 1 0.559378 0.37667 0.811869
860 1 0.734814 0.312297 0.810866
873 1 0.244122 0.377765 0.764233
876 1 0.252687 0.447724 0.812067
877 1 0.3727 0.380739 0.75592
879 1 0.436384 0.383728 0.820413
884 1 0.499874 0.438412 0.819152
886 1 0.676679 0.437716 0.752733
893 1 0.865512 0.371924 0.746508
865 1 0.995089 0.376009 0.757714
866 1 0.0648049 0.438902 0.748075
54 1 0.700314 0.182692 1.00036
1805 1 0.378565 0.499078 0.75093
888 1 0.628215 0.4367 0.822653
1819 1 0.808552 0.492982 0.821449
890 1 0.812217 0.445666 0.747993
894 1 0.930009 0.445 0.753518
1695 1 0.944055 0.501205 0.686898
1000 1 0.130843 0.44243 0.929484
665 1 0.751657 0.00458988 0.630601
996 1 0.001789 0.44486 0.930776
788 1 0.506108 0.0534125 0.808115
796 1 0.743394 0.0625279 0.81277
800 1 0.87594 0.0552123 0.801673
926 1 0.932619 0.0571227 0.862312
902 1 0.183735 0.0658349 0.87308
937 1 0.242879 0.125569 0.872561
910 1 0.433295 0.060571 0.886144
945 1 0.500472 0.116103 0.87562
914 1 0.562141 0.0611559 0.870258
918 1 0.692795 0.0645489 0.87672
953 1 0.755856 0.128152 0.85913
772 1 0.997981 0.0664051 0.803633
803 1 0.062735 0.126628 0.802077
811 1 0.317412 0.120969 0.817666
941 1 0.374455 0.128016 0.882155
815 1 0.433505 0.124409 0.82085
949 1 0.623845 0.118071 0.881476
950 1 0.686718 0.183346 0.868602
929 1 0.00191641 0.122637 0.87376
808 1 0.130165 0.190792 0.81072
812 1 0.251578 0.193079 0.815234
843 1 0.310638 0.247639 0.811357
942 1 0.447935 0.182373 0.884054
820 1 0.50445 0.178074 0.810338
946 1 0.566132 0.193888 0.877791
828 1 0.753695 0.192987 0.815203
985 1 0.746672 0.248637 0.880382
954 1 0.820086 0.181016 0.869615
832 1 0.873321 0.185311 0.807931
958 1 0.930418 0.19018 0.871279
804 1 0.999834 0.191563 0.81542
844 1 0.254805 0.316753 0.821154
847 1 0.435463 0.249965 0.822466
981 1 0.624698 0.2505 0.876788
859 1 0.80902 0.252707 0.806938
863 1 0.936717 0.241682 0.807095
836 1 0.995262 0.30514 0.810105
867 1 0.0611541 0.374729 0.814116
840 1 0.115246 0.309553 0.811604
871 1 0.178298 0.373134 0.812107
974 1 0.432213 0.317756 0.870993
1009 1 0.499929 0.378685 0.88201
856 1 0.621277 0.306791 0.814749
982 1 0.683459 0.315781 0.879029
864 1 0.869883 0.312222 0.804464
895 1 0.931117 0.374236 0.805639
868 1 0.995747 0.44124 0.818583
993 1 0.991053 0.369957 0.863874
872 1 0.119821 0.437059 0.813375
1005 1 0.374522 0.385893 0.876546
887 1 0.681127 0.37237 0.81417
891 1 0.808388 0.383248 0.802192
994 1 0.0608511 0.4355 0.870552
998 1 0.19109 0.445885 0.877686
880 1 0.380604 0.444521 0.813547
1006 1 0.437239 0.44189 0.879854
1817 1 0.74776 0.493176 0.756522
1010 1 0.561524 0.437635 0.881707
1014 1 0.686175 0.432151 0.883775
892 1 0.745542 0.434958 0.819562
1023 1 0.937449 0.383276 0.935634
896 1 0.869594 0.443148 0.808024
606 1 0.944469 0.314629 0.502542
1563 1 0.819732 0.491133 0.549658
899 1 0.0630588 0.00394395 0.937562
1547 1 0.311628 0.497947 0.563083
999 1 0.195551 0.381743 0.933572
1943 1 0.686216 0.497132 0.941838
549 1 0.127717 0.123513 0.506259
928 1 0.870645 0.0620288 0.932661
898 1 0.0681205 0.0581302 0.867829
906 1 0.310422 0.0701622 0.883416
943 1 0.43237 0.124477 0.940021
951 1 0.693558 0.12842 0.932113
924 1 0.748577 0.0652532 0.940787