ITEM: TIMESTEP
100000
ITEM: NUMBER OF ATOMS
2048
ITEM: BOX BOUNDS pp pp pp
0.0000000000000000e+00 1.1950412657485773e+01
0.0000000000000000e+00 1.1950412657485773e+01
0.0000000000000000e+00 1.1950412657485773e+01
ITEM: ATOMS id type xs ys zs
19 1 0.561981 0.000972723 0.0543932
29 1 0.880949 0.000139946 0.0127563
2 1 0.0630173 0.0568147 0.00778782
10 1 0.305833 0.0557906 0.00254053
14 1 0.437576 0.0591583 0.0117184
24 1 0.625902 0.0589948 0.0400748
26 1 0.821249 0.060869 0.00856419
928 1 0.930474 0.0648235 0.00407658
35 1 0.0613437 0.127326 0.0515732
37 1 0.131409 0.120058 0.00858703
45 1 0.366723 0.131196 0.000142644
47 1 0.437 0.129093 0.0548634
51 1 0.566217 0.122082 0.0518325
55 1 0.687769 0.115234 0.0465783
61 1 0.875681 0.123987 0.00756293
30 1 0.992598 0.125768 0.00519202
33 1 0.0527204 0.201031 0.00660354
40 1 0.122369 0.194131 0.043096
44 1 0.249014 0.189902 0.0545084
52 1 0.500457 0.192087 0.0554392
62 1 0.938542 0.187336 0.00275835
77 1 0.371718 0.239097 0.000570461
83 1 0.55878 0.248558 0.0512838
85 1 0.632018 0.259402 0.00018933
92 1 0.694448 0.267603 0.0486716
93 1 0.816009 0.247424 0.050469
34 1 0.0645039 0.322515 0.00182927
204 1 0.129408 0.305433 0.0555473
72 1 0.186068 0.301166 0.00457235
80 1 0.365124 0.306694 0.0520018
78 1 0.437434 0.303698 0.0013168
986 1 0.811345 0.311017 0.00064652
97 1 0.940565 0.309692 0.0113526
66 1 0.00704067 0.380561 0.00716318
105 1 0.248118 0.383164 0.00654297
109 1 0.369739 0.374637 0.00510688
113 1 0.488231 0.377631 0.00548677
110 1 0.42646 0.438645 0.00260019
116 1 0.493032 0.443424 0.0547457
1029 1 0.121258 0.497748 0.00371146
106 1 0.303865 0.448307 0.00624281
114 1 0.559354 0.451362 0.00727223
1047 1 0.685114 0.496817 0.0526056
8 1 0.121019 0.0473842 0.0610808
27 1 0.816173 0.0060394 0.0693071
12 1 0.246836 0.0557908 0.0573769
16 1 0.370775 0.0732087 0.0641139
20 1 0.499445 0.0559276 0.0612184
28 1 0.747654 0.0561104 0.0628846
32 1 0.891657 0.0674959 0.0729384
4 1 0.992937 0.0673301 0.0623547
39 1 0.19727 0.118633 0.0561531
43 1 0.307991 0.125005 0.064569
59 1 0.799375 0.12824 0.058543
63 1 0.934371 0.133917 0.0588003
48 1 0.362479 0.184288 0.0642954
178 1 0.631017 0.194116 0.0640611
60 1 0.73794 0.196465 0.0579017
64 1 0.873867 0.19169 0.0560131
36 1 0.992315 0.18468 0.0661295
67 1 0.0562391 0.255397 0.0703462
71 1 0.191784 0.244202 0.0556761
75 1 0.313182 0.24917 0.0568478
79 1 0.438358 0.247392 0.0624225
95 1 0.935376 0.248058 0.0626502
68 1 0.0025316 0.320847 0.0587347
76 1 0.255124 0.310283 0.058411
84 1 0.49427 0.313538 0.0608917
88 1 0.627105 0.323771 0.0686392
90 1 0.74748 0.322717 0.0702999
96 1 0.876628 0.322341 0.0614533
99 1 0.0628071 0.383399 0.0676946
103 1 0.177605 0.379331 0.0601297
107 1 0.309421 0.382376 0.0580416
111 1 0.429772 0.371693 0.065866
115 1 0.5644 0.375599 0.0696246
119 1 0.684903 0.382039 0.0673787
123 1 0.819908 0.38289 0.0561626
127 1 0.94246 0.381354 0.0601137
100 1 0.00695199 0.444334 0.0622984
108 1 0.239129 0.44225 0.0623307
120 1 0.619975 0.437992 0.0686991
124 1 0.740889 0.440058 0.0565806
128 1 0.882243 0.441205 0.0611005
104 1 0.128353 0.446456 0.0635042
112 1 0.362576 0.447299 0.0621964
129 1 0.00781018 0.00604138 0.131046
137 1 0.245757 0.00477856 0.133493
142 1 0.436115 0.0537642 0.122653
145 1 0.507175 0.0104761 0.126574
149 1 0.61529 0.022129 0.119617
157 1 0.882177 0.00497948 0.136911
130 1 0.0710897 0.0692847 0.126796
134 1 0.175803 0.0648796 0.123087
138 1 0.306361 0.0618246 0.117
146 1 0.550467 0.0819178 0.124164
150 1 0.684232 0.0688362 0.123151
154 1 0.81675 0.0751523 0.122339
158 1 0.942784 0.0678307 0.140938
161 1 0.0100182 0.124169 0.125015
165 1 0.125228 0.136691 0.117692
169 1 0.244399 0.114153 0.119424
173 1 0.383787 0.1302 0.119472
177 1 0.477574 0.127887 0.124311
181 1 0.626052 0.124986 0.127257
185 1 0.735404 0.13221 0.125606
189 1 0.881299 0.140847 0.11959
162 1 0.0561501 0.199724 0.124923
166 1 0.192335 0.187519 0.11929
170 1 0.306467 0.17843 0.122796
176 1 0.420894 0.19693 0.134124
209 1 0.560537 0.19385 0.111305
87 1 0.687554 0.192152 0.124586
186 1 0.802519 0.196486 0.118757
190 1 0.948238 0.183992 0.135653
197 1 0.144867 0.250479 0.122666
201 1 0.247034 0.254385 0.128795
205 1 0.370433 0.257246 0.115145
174 1 0.496932 0.249726 0.117838
213 1 0.623179 0.248835 0.118207
91 1 0.751971 0.256749 0.120418
221 1 0.882521 0.257681 0.122872
193 1 0.99622 0.250275 0.121494
194 1 0.0690194 0.3156 0.122063
198 1 0.190297 0.319404 0.11493
202 1 0.308681 0.315066 0.122877
206 1 0.438814 0.30664 0.124632
210 1 0.556342 0.309341 0.121032
214 1 0.686797 0.315202 0.126231
218 1 0.816092 0.321048 0.138064
222 1 0.946331 0.314999 0.123947
225 1 0.00062496 0.377252 0.124074
229 1 0.123899 0.378315 0.12617
233 1 0.245264 0.375651 0.118118
237 1 0.360848 0.375359 0.121216
241 1 0.49537 0.373364 0.123081
245 1 0.626106 0.375834 0.126403
249 1 0.749514 0.372522 0.139846
253 1 0.886513 0.381963 0.123972
226 1 0.0691602 0.44157 0.13265
230 1 0.190793 0.441117 0.128959
234 1 0.306943 0.432479 0.124393
1037 1 0.435062 0.442402 0.114733
242 1 0.550194 0.440413 0.126031
246 1 0.67801 0.443813 0.12486
250 1 0.821726 0.440877 0.112757
1157 1 0.131206 0.49505 0.131943
1173 1 0.615586 0.498402 0.118921
254 1 0.946746 0.450755 0.124552
131 1 0.0740564 0.001099 0.193753
135 1 0.185464 0.00015103 0.185209
139 1 0.312281 0.00131207 0.177209
147 1 0.564944 0.0112223 0.184682
156 1 0.751311 0.054692 0.176347
159 1 0.942998 0.00242759 0.192151
132 1 0.00611242 0.057998 0.194521
136 1 0.126916 0.0732568 0.191866
140 1 0.252353 0.0627997 0.193853
144 1 0.372583 0.0627902 0.1786
148 1 0.48806 0.0739523 0.18865
152 1 0.619511 0.0699405 0.182215
160 1 0.866956 0.0620443 0.196416
163 1 0.071663 0.133734 0.185727
167 1 0.195696 0.1253 0.183318
171 1 0.307516 0.117418 0.183664
175 1 0.431352 0.131196 0.193489
179 1 0.561925 0.142187 0.176919
183 1 0.679413 0.128085 0.188591
187 1 0.806993 0.147233 0.18229
191 1 0.933505 0.135546 0.195704
164 1 0.00435154 0.187513 0.198885
168 1 0.127336 0.196033 0.181574
172 1 0.256749 0.178458 0.197742
207 1 0.372947 0.200219 0.199842
180 1 0.488905 0.196031 0.177583
182 1 0.64051 0.195354 0.189032
188 1 0.738782 0.192934 0.191484
192 1 0.870665 0.197651 0.186646
195 1 0.0586206 0.256657 0.184949
199 1 0.187257 0.255191 0.186424
203 1 0.311596 0.254884 0.184807
212 1 0.44062 0.25742 0.191533
184 1 0.562904 0.23898 0.173429
217 1 0.689321 0.256486 0.183814
219 1 0.809237 0.244441 0.18602
223 1 0.941174 0.245384 0.186459
196 1 0.0106682 0.320334 0.187213
200 1 0.127636 0.305237 0.183452
330 1 0.252364 0.315802 0.19079
208 1 0.379291 0.316628 0.192282
211 1 0.501948 0.317965 0.185081
216 1 0.618204 0.310276 0.1808
220 1 0.749166 0.304737 0.185184
224 1 0.884076 0.324548 0.184551
227 1 0.0642628 0.372925 0.181233
231 1 0.18463 0.376036 0.204186
235 1 0.318821 0.372823 0.199112
239 1 0.432652 0.383888 0.191513
243 1 0.562063 0.375569 0.186475
247 1 0.686213 0.386414 0.188498
251 1 0.81488 0.388227 0.193976
255 1 0.953709 0.387929 0.186758
232 1 0.127017 0.432941 0.185965
236 1 0.257962 0.442489 0.189375
240 1 0.37323 0.433411 0.184252
244 1 0.501987 0.434969 0.196736
248 1 0.612892 0.442185 0.179397
252 1 0.755933 0.444361 0.19026
228 1 0.0121614 0.445535 0.191485
1159 1 0.196571 0.496517 0.197813
1163 1 0.317832 0.499676 0.16987
1305 1 0.692311 0.491915 0.185655
1177 1 0.819759 0.497914 0.17351
256 1 0.885743 0.445165 0.189866
1183 1 0.948947 0.496767 0.187767
262 1 0.181882 0.0486369 0.249875
265 1 0.262608 0.00317821 0.252569
273 1 0.503248 0.00145704 0.245826
281 1 0.750994 0.00204785 0.238612
285 1 0.87128 0.0057444 0.248843
258 1 0.057071 0.0687913 0.255302
266 1 0.320022 0.0581536 0.241771
270 1 0.432352 0.0598092 0.250344
274 1 0.547738 0.0675274 0.242747
278 1 0.685052 0.0612642 0.235184
282 1 0.796997 0.0692731 0.245374
286 1 0.938095 0.0669274 0.243193
293 1 0.135889 0.136572 0.238644
297 1 0.255188 0.112444 0.257917
301 1 0.371014 0.119116 0.246557
305 1 0.494107 0.1334 0.246662
309 1 0.625313 0.121618 0.253584
313 1 0.740393 0.125222 0.243939
317 1 0.881935 0.141865 0.263203
289 1 0.998273 0.125115 0.250818
290 1 0.0693499 0.195293 0.247526
294 1 0.191392 0.195088 0.249035
298 1 0.31205 0.174976 0.254874
302 1 0.441222 0.193999 0.243485
306 1 0.573029 0.19293 0.254595
310 1 0.692903 0.185332 0.257508
314 1 0.81938 0.202059 0.253761
318 1 0.946626 0.188965 0.25682
321 1 0.00967119 0.255671 0.256585
325 1 0.130228 0.254548 0.247434
329 1 0.257963 0.250528 0.259463
333 1 0.377075 0.259528 0.2635
337 1 0.503023 0.249524 0.257504
341 1 0.635284 0.245668 0.264155
345 1 0.73688 0.253919 0.250154
349 1 0.881452 0.271161 0.24937
322 1 0.0674299 0.309742 0.248963
326 1 0.190678 0.308622 0.247708
365 1 0.313566 0.311128 0.255438
334 1 0.445206 0.317259 0.24179
338 1 0.564896 0.306775 0.245407
342 1 0.679459 0.315044 0.240675
346 1 0.819063 0.323531 0.243597
350 1 0.94782 0.317337 0.237256
353 1 0.0093853 0.384217 0.261219
357 1 0.112396 0.378228 0.260139
361 1 0.254258 0.386571 0.243991
368 1 0.381648 0.37217 0.259633
369 1 0.501608 0.37428 0.248315
373 1 0.628541 0.380595 0.244903
377 1 0.742659 0.365552 0.250936
381 1 0.885992 0.367679 0.25397
362 1 0.320755 0.437911 0.255083
238 1 0.569362 0.439044 0.24518
374 1 0.702286 0.434622 0.252878
378 1 0.805209 0.432963 0.258721
382 1 0.939857 0.435776 0.255407
354 1 0.0636585 0.444853 0.254571
1285 1 0.12892 0.49969 0.245953
358 1 0.190806 0.446188 0.259305
1289 1 0.26316 0.492876 0.250822
1293 1 0.375758 0.496748 0.250004
366 1 0.443941 0.449342 0.247467
1297 1 0.505348 0.497794 0.245954
1301 1 0.628376 0.492244 0.23841
1179 1 0.752883 0.498659 0.257613
259 1 0.0475391 0.00102929 0.315832
268 1 0.24377 0.0541751 0.315201
271 1 0.438781 0.00363292 0.311045
280 1 0.619937 0.0550075 0.306245
279 1 0.685135 0.00331059 0.298677
283 1 0.804783 0.00744453 0.313432
287 1 0.938749 0.00778221 0.313788
260 1 0.00386101 0.0700955 0.313506
264 1 0.126445 0.063194 0.312484
272 1 0.375411 0.0654523 0.307067
276 1 0.498463 0.0569281 0.320983
284 1 0.739389 0.06753 0.309211
288 1 0.866067 0.0659055 0.303479
291 1 0.0690802 0.119375 0.312754
295 1 0.18396 0.123857 0.311989
299 1 0.31116 0.120472 0.315588
303 1 0.444048 0.118789 0.305121
307 1 0.56516 0.126024 0.307857
311 1 0.682202 0.127662 0.315732
315 1 0.808774 0.124363 0.320387
319 1 0.940228 0.139348 0.317631
292 1 0.0154606 0.182928 0.306192
296 1 0.122327 0.186605 0.313791
300 1 0.246979 0.183815 0.307999
304 1 0.371353 0.190457 0.315911
308 1 0.504872 0.184014 0.31085
312 1 0.625652 0.184303 0.327598
316 1 0.755935 0.193066 0.312557
320 1 0.86947 0.197887 0.318785
323 1 0.0766797 0.254415 0.315376
327 1 0.186993 0.248376 0.311154
331 1 0.311083 0.251747 0.319243
335 1 0.4426 0.275586 0.319803
339 1 0.566719 0.252607 0.312393
215 1 0.690288 0.242947 0.325544
347 1 0.814204 0.260743 0.313767
351 1 0.931207 0.24956 0.315951
328 1 0.123514 0.317605 0.315059
332 1 0.254023 0.312374 0.313854
336 1 0.372545 0.311501 0.329476
340 1 0.512347 0.315203 0.313409
344 1 0.645244 0.317811 0.311438
375 1 0.754682 0.312182 0.313335
352 1 0.874502 0.319372 0.319864
478 1 0.99711 0.307678 0.315701
324 1 0.0627599 0.37803 0.325475
359 1 0.183503 0.378211 0.310291
363 1 0.314462 0.370792 0.322638
367 1 0.432314 0.369432 0.324982
371 1 0.583352 0.370173 0.313167
376 1 0.686673 0.387771 0.320054
379 1 0.812328 0.374693 0.311946
383 1 0.941045 0.363155 0.313416
356 1 0.00230313 0.440696 0.318266
360 1 0.121593 0.43994 0.316808
364 1 0.262178 0.43887 0.319781
490 1 0.370195 0.433568 0.316902
372 1 0.504292 0.430329 0.300929
370 1 0.623212 0.439271 0.307109
380 1 0.757122 0.431346 0.319357
384 1 0.875656 0.430314 0.31704
1295 1 0.426765 0.498335 0.318034
1299 1 0.564774 0.491524 0.318439
1303 1 0.682479 0.49793 0.309414
1307 1 0.811034 0.496176 0.316152
1311 1 0.940915 0.499139 0.316161
394 1 0.305531 0.0531029 0.380774
397 1 0.379155 0.00438718 0.36842
398 1 0.442479 0.0516649 0.378234
405 1 0.625771 0.00900172 0.369768
409 1 0.746653 0.00196151 0.376657
413 1 0.861471 0.00795955 0.3694
385 1 0.995488 0.00850972 0.381542
386 1 0.0614862 0.0611963 0.369691
390 1 0.190922 0.0611817 0.374453
402 1 0.555903 0.0716081 0.384554
406 1 0.680289 0.0708224 0.367364
410 1 0.811636 0.0685094 0.380704
414 1 0.933257 0.0718044 0.369018
421 1 0.130049 0.113933 0.378488
425 1 0.249505 0.122586 0.37294
429 1 0.364232 0.12912 0.386192
433 1 0.49607 0.124629 0.375817
437 1 0.623138 0.128409 0.387987
441 1 0.747929 0.128018 0.381366
445 1 0.876067 0.133553 0.366522
417 1 0.99629 0.11951 0.378582
418 1 0.0671383 0.186117 0.384333
422 1 0.187564 0.192401 0.372203
426 1 0.30493 0.187196 0.366644
430 1 0.437912 0.176142 0.358967
434 1 0.560566 0.184174 0.376105
442 1 0.809206 0.190168 0.368616
446 1 0.949192 0.190152 0.38579
449 1 0.00547153 0.245552 0.371618
453 1 0.127895 0.250078 0.384759
457 1 0.249514 0.246816 0.365765
465 1 0.504626 0.24702 0.362875
469 1 0.629629 0.254263 0.373443
473 1 0.763932 0.253253 0.384307
477 1 0.870577 0.252252 0.374778
450 1 0.0735064 0.31437 0.380857
454 1 0.18285 0.314534 0.373379
458 1 0.303483 0.309478 0.378738
466 1 0.57538 0.315046 0.37769
470 1 0.704297 0.310694 0.376909
348 1 0.813998 0.320595 0.373726
480 1 0.934729 0.309968 0.375872
355 1 0.131099 0.378858 0.376171
489 1 0.252974 0.372105 0.368925
493 1 0.372655 0.377119 0.381364
497 1 0.498845 0.373043 0.372364
501 1 0.631619 0.377307 0.379987
505 1 0.762594 0.375128 0.378071
509 1 0.879391 0.375268 0.380123
481 1 0.995778 0.382542 0.377887
485 1 0.193173 0.43406 0.375993
492 1 0.309967 0.428429 0.386527
494 1 0.439863 0.43616 0.373536
498 1 0.571313 0.430759 0.370992
502 1 0.698166 0.433456 0.383301
506 1 0.81483 0.435288 0.378102
510 1 0.941357 0.434488 0.371177
482 1 0.0677959 0.448279 0.38436
1413 1 0.130381 0.497637 0.371552
1417 1 0.253461 0.486822 0.382176
1425 1 0.511616 0.493206 0.373344
1429 1 0.629414 0.497221 0.372769
1437 1 0.872453 0.497381 0.368137
387 1 0.0601908 0.00209522 0.437164
392 1 0.129629 0.0539802 0.437005
396 1 0.24409 0.0542825 0.437826
395 1 0.318922 0.000220809 0.443949
407 1 0.684245 0.0163692 0.427776
411 1 0.820207 0.00143572 0.438013
415 1 0.929843 0.00739653 0.423847
388 1 0.00205007 0.0597658 0.438906
400 1 0.370008 0.0582525 0.427483
404 1 0.504153 0.0691022 0.44281
408 1 0.622259 0.0666893 0.440345
412 1 0.752929 0.0599167 0.43996
416 1 0.871383 0.0622724 0.430949
419 1 0.05749 0.113734 0.433903
427 1 0.30497 0.111763 0.440031
431 1 0.437599 0.113102 0.430048
443 1 0.815304 0.123198 0.436102
447 1 0.930078 0.128513 0.43232
424 1 0.126991 0.189319 0.440776
428 1 0.254579 0.185955 0.428794
436 1 0.500128 0.184112 0.435517
343 1 0.681581 0.185527 0.389724
444 1 0.745717 0.193044 0.441007
448 1 0.873828 0.188249 0.438707
459 1 0.314961 0.256435 0.439088
461 1 0.391135 0.233263 0.391381
467 1 0.567996 0.245895 0.429365
471 1 0.691394 0.253014 0.439202
475 1 0.818432 0.249653 0.441281
479 1 0.922858 0.253721 0.437109
452 1 0.00163813 0.324995 0.434598
456 1 0.131493 0.320731 0.436917
460 1 0.255574 0.310158 0.442758
462 1 0.425412 0.305513 0.396615
468 1 0.502792 0.311568 0.423187
472 1 0.63249 0.314208 0.43126
474 1 0.872874 0.314677 0.431765
483 1 0.064852 0.378627 0.442164
487 1 0.199167 0.372641 0.437192
491 1 0.314879 0.366232 0.442733
499 1 0.55732 0.38345 0.442753
503 1 0.693993 0.367145 0.435776
511 1 0.933199 0.371674 0.444288
1541 1 0.128122 0.435565 0.439223
486 1 0.252644 0.43053 0.440968
500 1 0.498348 0.433644 0.429406
504 1 0.631807 0.439912 0.436047
508 1 0.761803 0.442656 0.435867
512 1 0.874728 0.438688 0.438011
484 1 0.997219 0.436452 0.439868
1415 1 0.188476 0.498258 0.428831
1419 1 0.315303 0.49304 0.4415
1427 1 0.575284 0.499854 0.431567
1431 1 0.693399 0.496365 0.432925
1439 1 0.92831 0.495869 0.423339
518 1 0.189274 0.0515628 0.499961
539 1 0.885052 0.00511362 0.492645
513 1 0.989817 7.96411e-05 0.496968
526 1 0.429603 0.0595323 0.490943
538 1 0.822342 0.0600075 0.495592
542 1 0.930253 0.0682495 0.488292
423 1 0.186513 0.114919 0.44937
557 1 0.369545 0.118103 0.498655
561 1 0.499651 0.128617 0.49681
435 1 0.567574 0.130718 0.444552
565 1 0.626585 0.120722 0.499644
438 1 0.687044 0.126461 0.455709
569 1 0.764147 0.117157 0.497815
545 1 0.988765 0.119265 0.499261
420 1 0.00812902 0.186132 0.448013
432 1 0.364208 0.189378 0.453969
562 1 0.565959 0.194602 0.499998
440 1 0.621912 0.190365 0.44476
570 1 0.811166 0.183731 0.491818
574 1 0.933461 0.182784 0.498409
451 1 0.0616833 0.24152 0.451262
455 1 0.203278 0.24866 0.445411
463 1 0.442645 0.246662 0.453514
593 1 0.508718 0.260318 0.490398
597 1 0.632034 0.257503 0.49317
578 1 0.0621611 0.303422 0.497773
464 1 0.374806 0.313589 0.457454
590 1 0.444913 0.31259 0.495181
594 1 0.565157 0.315396 0.491448
598 1 0.690244 0.311094 0.494566
476 1 0.764892 0.308752 0.448261
606 1 0.927172 0.308693 0.496247
488 1 0.132217 0.380447 0.494637
495 1 0.430195 0.374535 0.451242
629 1 0.627442 0.377136 0.492014
507 1 0.818965 0.376404 0.445177
610 1 0.0681022 0.443783 0.491557
496 1 0.373411 0.426202 0.44526
626 1 0.574742 0.441418 0.491758
630 1 0.685598 0.437108 0.498458
616 1 0.13579 0.49858 0.492911
1545 1 0.247574 0.493522 0.495412
1553 1 0.517753 0.49708 0.495427
517 1 0.125312 0.0044983 0.50167
522 1 0.312979 0.0549923 0.501893
528 1 0.375379 0.0532222 0.553113
530 1 0.557444 0.0535793 0.501573
514 1 0.0572091 0.058263 0.500237
549 1 0.124539 0.109926 0.500505
439 1 0.698797 0.058612 0.50297
516 1 0.997782 0.0589391 0.554329
553 1 0.245984 0.129856 0.504977
567 1 0.693673 0.122358 0.553657
573 1 0.876307 0.126466 0.502946
546 1 0.0743759 0.177562 0.501543
550 1 0.18893 0.190852 0.506916
554 1 0.299006 0.196558 0.503469
558 1 0.431096 0.173888 0.502716
566 1 0.684454 0.190348 0.506639
572 1 0.751636 0.18755 0.555374
579 1 0.0755228 0.241228 0.551059
581 1 0.140801 0.254047 0.505176
585 1 0.25034 0.262856 0.518682
589 1 0.377218 0.248106 0.507063
591 1 0.43956 0.23193 0.554759
601 1 0.753627 0.250408 0.502116
605 1 0.875115 0.240475 0.502398
577 1 0.990835 0.255183 0.506442
582 1 0.188098 0.321828 0.515763
586 1 0.307692 0.314645 0.508103
602 1 0.815097 0.327062 0.505704
609 1 0.00311486 0.379811 0.501626
617 1 0.255439 0.380264 0.509113
621 1 0.362303 0.376567 0.509806
625 1 0.500541 0.380764 0.509917
633 1 0.750943 0.380786 0.503683
637 1 0.878314 0.375654 0.524249
614 1 0.188587 0.438765 0.500108
618 1 0.314508 0.443823 0.504872
634 1 0.81377 0.439849 0.510437
638 1 0.925829 0.434751 0.503175
1537 1 0.00404275 0.494362 0.500242
622 1 0.439 0.449196 0.500988
1557 1 0.630474 0.499138 0.505627
1565 1 0.871422 0.498029 0.502417
544 1 0.86962 0.0552248 0.563755
520 1 0.125577 0.0580642 0.568274
524 1 0.250898 0.0614737 0.55694
532 1 0.502786 0.0754178 0.563694
658 1 0.571066 0.0588359 0.605911
536 1 0.636106 0.0603006 0.560811
662 1 0.745585 0.0589536 0.564773
547 1 0.0616484 0.113843 0.569448
551 1 0.181622 0.119089 0.557917
555 1 0.311499 0.118328 0.55959
559 1 0.430064 0.11871 0.560279
563 1 0.569392 0.128777 0.556936
571 1 0.816354 0.12162 0.556371
575 1 0.945043 0.129362 0.560081
548 1 0.0111877 0.179624 0.562074
552 1 0.135332 0.180837 0.567906
556 1 0.241919 0.18062 0.56555
560 1 0.370848 0.183421 0.557343
564 1 0.50498 0.178368 0.564841
568 1 0.622177 0.190939 0.558947
576 1 0.86276 0.184598 0.56952
583 1 0.189097 0.252087 0.569269
587 1 0.31164 0.251759 0.568936
595 1 0.558619 0.257309 0.555556
599 1 0.682015 0.25549 0.556074
603 1 0.812104 0.245655 0.556493
607 1 0.932832 0.251855 0.56209
580 1 0.00168333 0.315789 0.557102
584 1 0.123167 0.310729 0.563429
588 1 0.244831 0.323938 0.573927
592 1 0.375633 0.305115 0.561556
596 1 0.500571 0.311406 0.560503
600 1 0.624806 0.314573 0.55564
604 1 0.754251 0.314841 0.559008
608 1 0.871571 0.301214 0.567178
611 1 0.055206 0.381664 0.568521
615 1 0.180136 0.377059 0.574901
619 1 0.325097 0.381558 0.578487
623 1 0.431861 0.385731 0.555628
627 1 0.565247 0.378051 0.556619
631 1 0.688266 0.377583 0.557347
635 1 0.804772 0.378333 0.565125
765 1 0.879251 0.368184 0.610537
639 1 0.948839 0.378365 0.562301
612 1 0.00716412 0.440177 0.561544
613 1 0.121849 0.443377 0.564782
620 1 0.245763 0.433934 0.568733
632 1 0.629582 0.437983 0.566133
636 1 0.747376 0.443427 0.559778
640 1 0.869607 0.442094 0.568951
624 1 0.370581 0.447533 0.564418
628 1 0.510026 0.454345 0.565355
1567 1 0.92796 0.495208 0.56151
642 1 0.0728912 0.050043 0.637509
646 1 0.201039 0.0524943 0.626778
653 1 0.373696 0.00429351 0.613861
641 1 0.998681 0.0120041 0.62107
650 1 0.308916 0.0632332 0.632479
654 1 0.43782 0.0623576 0.628476
663 1 0.691456 0.0580691 0.6266
666 1 0.81673 0.0635025 0.626441
669 1 0.937759 0.0689015 0.613253
673 1 0.00599565 0.128015 0.627134
677 1 0.130532 0.11175 0.62894
681 1 0.251673 0.134275 0.631058
685 1 0.368727 0.127358 0.619597
689 1 0.510256 0.124367 0.639137
693 1 0.635067 0.125564 0.627768
697 1 0.752284 0.120472 0.62119
701 1 0.868589 0.126591 0.63377
674 1 0.0669195 0.181878 0.631536
678 1 0.190514 0.196219 0.627569
682 1 0.316121 0.186151 0.621978
686 1 0.442612 0.184111 0.623867
690 1 0.566782 0.184087 0.62034
694 1 0.688792 0.186912 0.61819
698 1 0.800494 0.186421 0.623187
702 1 0.944066 0.179839 0.62796
705 1 0.00204432 0.235775 0.624871
709 1 0.123552 0.252874 0.616879
713 1 0.251966 0.257141 0.636116
717 1 0.377486 0.246078 0.624485
721 1 0.505514 0.242523 0.623623
725 1 0.625219 0.254893 0.615471
729 1 0.753133 0.251701 0.612271
733 1 0.857133 0.245706 0.626438
706 1 0.054649 0.304402 0.622756
710 1 0.183075 0.316383 0.630626
714 1 0.312656 0.312916 0.622319
718 1 0.438087 0.300856 0.615306
722 1 0.573191 0.316566 0.622693
726 1 0.676816 0.314736 0.623926
730 1 0.812223 0.313038 0.638727
734 1 0.929289 0.308712 0.623995
737 1 0.00216722 0.368254 0.629531
741 1 0.110436 0.361611 0.628559
745 1 0.257166 0.382397 0.631628
749 1 0.38489 0.362872 0.628862
753 1 0.503304 0.386509 0.611725
757 1 0.630485 0.382792 0.625952
761 1 0.746674 0.366807 0.624112
738 1 0.062802 0.434052 0.633299
750 1 0.4251 0.441153 0.621393
762 1 0.809671 0.434212 0.628859
766 1 0.945705 0.427078 0.62199
1669 1 0.122306 0.494276 0.642106
742 1 0.183259 0.445545 0.634606
1673 1 0.247575 0.495152 0.625246
746 1 0.314794 0.44582 0.625699
754 1 0.564665 0.453786 0.633954
758 1 0.690212 0.445281 0.61916
1689 1 0.754664 0.492363 0.625858
1665 1 0.992916 0.493871 0.621323
652 1 0.253248 0.0540579 0.702623
651 1 0.322301 0.0089161 0.687261
660 1 0.498733 0.0486571 0.684337
664 1 0.626953 0.0382768 0.675567
793 1 0.699775 0.00305315 0.691284
644 1 0.00548827 0.0567594 0.68874
648 1 0.136085 0.0562754 0.69459
656 1 0.372941 0.070859 0.683427
668 1 0.755285 0.0584174 0.682283
672 1 0.879106 0.0641232 0.67999
675 1 0.0647268 0.114803 0.684484
679 1 0.190036 0.124363 0.685874
683 1 0.313673 0.126295 0.696405
687 1 0.433263 0.125392 0.68457
691 1 0.582467 0.111708 0.691226
695 1 0.681842 0.125413 0.69218
699 1 0.806108 0.126665 0.692159
670 1 0.944487 0.115791 0.681991
676 1 0.0106821 0.17817 0.690483
680 1 0.12981 0.189035 0.68553
684 1 0.255927 0.193234 0.68782
688 1 0.368517 0.181593 0.680536
692 1 0.495788 0.188661 0.689103
696 1 0.623927 0.182089 0.690977
700 1 0.738771 0.183788 0.68496
704 1 0.888974 0.18306 0.691707
707 1 0.0593246 0.248498 0.692918
711 1 0.191179 0.254829 0.690095
715 1 0.319515 0.251203 0.684494
719 1 0.427287 0.258185 0.686975
723 1 0.568718 0.244477 0.679768
727 1 0.6908 0.246879 0.687076
731 1 0.814124 0.242759 0.693963
735 1 0.946017 0.246047 0.688208
712 1 0.122423 0.306493 0.683334
716 1 0.26927 0.321066 0.692685
720 1 0.37262 0.314946 0.693541
724 1 0.505841 0.307501 0.679993
728 1 0.621436 0.327157 0.684904
732 1 0.748585 0.313917 0.695462
736 1 0.88098 0.308596 0.691928
708 1 0.998735 0.3038 0.684508
739 1 0.0609711 0.359692 0.691481
743 1 0.189531 0.372842 0.683904
747 1 0.32434 0.381171 0.686755
751 1 0.451132 0.363413 0.66973
755 1 0.561684 0.386162 0.679704
759 1 0.688744 0.374843 0.686992
763 1 0.806287 0.377963 0.688098
767 1 0.94333 0.364299 0.687065
744 1 0.123716 0.428568 0.688412
748 1 0.256565 0.438665 0.690399
760 1 0.635785 0.431049 0.691908
764 1 0.752249 0.435416 0.687186
894 1 0.882412 0.437364 0.674041
740 1 0.996915 0.427331 0.687218
1667 1 0.0537566 0.497989 0.698433
752 1 0.373011 0.448441 0.698314
756 1 0.495427 0.445314 0.690448
1687 1 0.684225 0.498534 0.69379
1691 1 0.821648 0.491682 0.691099
770 1 0.0710948 0.0432763 0.74119
778 1 0.316967 0.0545588 0.757486
794 1 0.751414 0.0027224 0.754827
799 1 0.886272 0.00479604 0.743732
774 1 0.193365 0.0711246 0.755956
782 1 0.432886 0.0642657 0.75174
786 1 0.566284 0.0626921 0.754367
790 1 0.687189 0.0595053 0.748016
797 1 0.829677 0.0651753 0.743655
703 1 0.945958 0.0615307 0.751965
801 1 0.0167891 0.124942 0.748696
805 1 0.129413 0.127206 0.742531
809 1 0.25034 0.134948 0.750213
813 1 0.378257 0.129406 0.753136
817 1 0.503473 0.119697 0.733052
821 1 0.621644 0.122826 0.756186
825 1 0.742769 0.118934 0.74665
829 1 0.882014 0.124041 0.751653
802 1 0.0703575 0.187177 0.747746
806 1 0.190991 0.194229 0.749126
810 1 0.314858 0.188936 0.752399
814 1 0.435252 0.200396 0.746888
818 1 0.562218 0.182347 0.745779
822 1 0.686533 0.188889 0.753004
826 1 0.803018 0.189308 0.765405
830 1 0.949126 0.171138 0.752011
833 1 0.00583672 0.238149 0.756966
837 1 0.126949 0.250875 0.741752
841 1 0.254163 0.250008 0.747775
845 1 0.372205 0.253926 0.748255
849 1 0.511703 0.250699 0.749959
853 1 0.624892 0.24674 0.739314
857 1 0.756605 0.256198 0.751785
861 1 0.876674 0.245127 0.745359
834 1 0.0439853 0.310068 0.75491
838 1 0.184317 0.31722 0.745212
842 1 0.317218 0.317683 0.758038
846 1 0.452123 0.320729 0.757165
850 1 0.55801 0.324734 0.74512
854 1 0.667708 0.315955 0.750452
858 1 0.815438 0.312664 0.743883
862 1 0.944226 0.311799 0.74492
869 1 0.123471 0.366657 0.740501
873 1 0.254295 0.373359 0.755296
877 1 0.389123 0.379856 0.742815
881 1 0.5029 0.381892 0.740167
885 1 0.616067 0.37794 0.755641
889 1 0.75657 0.379419 0.749944
893 1 0.889285 0.371376 0.757493
865 1 0.992817 0.374213 0.75983
866 1 0.0614057 0.426995 0.738879
870 1 0.194887 0.428742 0.743836
874 1 0.312527 0.443752 0.757315
882 1 0.555651 0.444435 0.751167
886 1 0.691302 0.437551 0.758127
890 1 0.841698 0.432337 0.745661
868 1 0.923692 0.441605 0.739201
1805 1 0.373754 0.496844 0.760241
878 1 0.43946 0.449328 0.750399
1793 1 0.988375 0.498491 0.753583
775 1 0.187136 0.0116692 0.815338
783 1 0.440324 0.00702047 0.802362
791 1 0.688849 0.00210319 0.807138
772 1 0.0322769 0.0670438 0.80592
776 1 0.12519 0.0662555 0.803045
780 1 0.257003 0.0598223 0.811877
784 1 0.382149 0.067618 0.814587
788 1 0.498972 0.0685271 0.80929
792 1 0.618822 0.0572153 0.809996
796 1 0.74959 0.0635719 0.809747
926 1 0.875314 0.0583327 0.821042
798 1 0.945976 0.10967 0.822086
803 1 0.0717422 0.135982 0.811286
807 1 0.170692 0.134507 0.808837
811 1 0.321562 0.125367 0.820915
815 1 0.441769 0.134005 0.803627
819 1 0.564449 0.121467 0.809723
823 1 0.678802 0.120963 0.810298
827 1 0.818619 0.117092 0.807846
835 1 0.126798 0.20578 0.804778
812 1 0.251132 0.189932 0.810252
816 1 0.375862 0.197412 0.812464
820 1 0.492953 0.195075 0.810463
824 1 0.624973 0.18814 0.819555
828 1 0.74255 0.172446 0.809238
832 1 0.879799 0.184429 0.812114
804 1 0.999463 0.17713 0.816538
836 1 0.0574856 0.237684 0.822917
839 1 0.197809 0.256234 0.804853
843 1 0.311922 0.262757 0.820344
847 1 0.435884 0.25607 0.809333
851 1 0.567998 0.247599 0.811552
855 1 0.680346 0.259448 0.80314
859 1 0.828711 0.24575 0.830306
863 1 0.935854 0.239603 0.831823
965 1 0.126124 0.303784 0.805307
844 1 0.243641 0.324572 0.814051
848 1 0.385094 0.321212 0.802175
852 1 0.509639 0.323674 0.811029
856 1 0.615173 0.315348 0.812668
860 1 0.738685 0.321717 0.802362
864 1 0.885606 0.310049 0.805308
895 1 0.991228 0.294369 0.814686
840 1 0.0729601 0.364028 0.812973
871 1 0.179622 0.371283 0.810351
875 1 0.317293 0.380091 0.811535
879 1 0.436381 0.384818 0.818062
883 1 0.564182 0.383685 0.815874
887 1 0.678943 0.375114 0.811472
891 1 0.814483 0.365985 0.81206
1022 1 0.941787 0.383152 0.819365
867 1 0.00918213 0.431747 0.814923
872 1 0.123472 0.435236 0.79325
876 1 0.254105 0.430364 0.808223
880 1 0.374049 0.437041 0.814381
888 1 0.626261 0.442384 0.809656
896 1 0.880307 0.44213 0.81842
1795 1 0.0634629 0.491188 0.824715
1799 1 0.179075 0.495259 0.806519
1807 1 0.434655 0.492603 0.816159
884 1 0.503152 0.445244 0.816871
892 1 0.756883 0.447591 0.811443
1819 1 0.818462 0.496292 0.813789
905 1 0.245115 0.0044923 0.870663
910 1 0.424953 0.0538876 0.886294
922 1 0.812264 0.0466322 0.873232
831 1 0.939652 0.0502122 0.885063
898 1 0.0650829 0.0575385 0.876054
902 1 0.179376 0.0676193 0.877611
906 1 0.31399 0.0639996 0.877212
914 1 0.560206 0.0730184 0.872024
918 1 0.682941 0.0620466 0.864406
929 1 0.0107356 0.123123 0.875989
808 1 0.120053 0.128402 0.884955
937 1 0.255233 0.133253 0.870201
941 1 0.383677 0.125227 0.87279
945 1 0.496249 0.127543 0.863369
949 1 0.625738 0.126178 0.869543
953 1 0.752125 0.115537 0.868855
957 1 0.874347 0.119881 0.876372
934 1 0.184038 0.180781 0.870908
938 1 0.315626 0.187729 0.872845
942 1 0.432234 0.187899 0.867439
946 1 0.549764 0.190175 0.87098
950 1 0.692027 0.18756 0.872096
954 1 0.810727 0.182395 0.879463
958 1 0.937278 0.174622 0.874859
967 1 0.137148 0.252652 0.871759
969 1 0.245262 0.258151 0.869539
973 1 0.361328 0.254418 0.87599
977 1 0.502105 0.256181 0.869071
981 1 0.621252 0.255667 0.872934
985 1 0.738133 0.255805 0.868795
961 1 0.999475 0.245907 0.881094
962 1 0.060013 0.305775 0.871505
966 1 0.189321 0.315986 0.875127
970 1 0.317057 0.322917 0.884054
974 1 0.42414 0.324498 0.875152
978 1 0.559104 0.306678 0.886729
982 1 0.678055 0.313428 0.863242
1017 1 0.814587 0.309065 0.878114
990 1 0.937848 0.325349 0.881811
997 1 0.124924 0.377125 0.872323
1001 1 0.256873 0.383848 0.88532
1005 1 0.366693 0.386665 0.876467
1009 1 0.499456 0.384115 0.876596
1013 1 0.626984 0.385936 0.865691
1015 1 0.74226 0.373839 0.863911
1021 1 0.87001 0.376209 0.874935
993 1 0.999865 0.378226 0.8796
994 1 0.0570108 0.432435 0.881397
998 1 0.180586 0.4354 0.859951
1006 1 0.435139 0.444006 0.886244