ITEM: TIMESTEP
100000
ITEM: NUMBER OF ATOMS
2048
ITEM: BOX BOUNDS pp pp pp
0.0000000000000000e+00 1.1351867295763070e+01
0.0000000000000000e+00 1.1351867295763070e+01
0.0000000000000000e+00 1.1351867295763070e+01
ITEM: ATOMS id type xs ys zs
517 1 0.124373 0.00349846 0.501288
553 1 0.250609 0.124769 0.497334
409 1 0.75207 0.00155119 0.373928
1303 1 0.688404 0.499423 0.317908
1051 1 0.809805 0.502138 0.0628314
413 1 0.878487 0.00404773 0.378104
121 1 0.751413 0.382229 0.00172763
32 1 0.875972 0.0612515 0.0652724
4 1 0.00603997 0.062992 0.0643889
105 1 0.251307 0.370323 -0.000302829
275 1 0.562671 0.00448197 0.316513
541 1 0.879664 0.00919349 0.502293
514 1 0.0639209 0.0619533 0.495947
55 1 0.685252 0.12411 0.0564556
407 1 0.691655 0.00580675 0.438688
81 1 0.503513 0.243241 -0.000458604
39 1 0.195328 0.125783 0.0616601
43 1 0.317066 0.124765 0.0648664
2 1 0.0646145 0.0599833 -0.000190301
93 1 0.879638 0.247547 0.00104092
403 1 0.556777 -0.000790737 0.438051
549 1 0.123374 0.123226 0.498248
1171 1 0.559746 0.495287 0.188462
36 1 1.00506 0.18922 0.0617911
273 1 0.499432 0.000806445 0.242911
3 1 0.0658695 0.00173617 0.0678534
75 1 0.309492 0.246658 0.0629165
1297 1 0.492699 0.507861 0.257817
83 1 0.561205 0.24449 0.0678475
1043 1 0.558544 0.502199 0.0626212
91 1 0.811872 0.25292 0.0707143
530 1 0.563246 0.063062 0.499894
1311 1 0.935645 0.497058 0.309071
114 1 0.565118 0.436199 -0.00355858
76 1 0.250175 0.308766 0.0630971
1411 1 0.0666259 0.49982 0.436052
80 1 0.37333 0.309765 0.0632858
605 1 0.876728 0.2495 0.497821
87 1 0.683147 0.255492 0.0673068
265 1 0.247596 0.00267757 0.251405
267 1 0.309847 -0.000487705 0.306822
391 1 0.188948 0.000646817 0.442373
107 1 0.314171 0.375039 0.069814
1423 1 0.438342 0.497593 0.43472
133 1 0.123465 0.00537788 0.130619
1437 1 0.875717 0.498809 0.3697
123 1 0.809534 0.371666 0.0656349
109 1 0.375217 0.373789 -0.000509204
415 1 0.93946 -0.000845571 0.43871
65 1 0.000210389 0.247744 0.00242659
104 1 0.120629 0.440194 0.0570491
118 1 0.684658 0.437824 0.0029586
108 1 0.253325 0.434 0.0631976
120 1 0.621446 0.432637 0.0649499
570 1 0.815905 0.189069 0.49926
127 1 0.93766 0.374261 0.0615127
117 1 0.624126 0.375121 -0.000384249
545 1 7.96316e-05 0.126743 0.499839
159 1 0.940687 0.00207494 0.193693
1309 1 0.877458 0.495942 0.250568
609 1 1.00334 0.375677 0.50265
112 1 0.380949 0.440142 0.0667793
1561 1 0.746604 0.498223 0.496666
1031 1 0.187062 0.500915 0.0607618
116 1 0.500545 0.438789 0.0573343
283 1 0.811386 0.000789456 0.305592
504 1 0.626983 0.434835 0.440011
8 1 0.12842 0.068529 0.0688516
46 1 0.436927 0.18813 0.00289406
20 1 0.500426 0.0650567 0.0565568
24 1 0.632119 0.0629511 0.0485289
28 1 0.748625 0.0636371 0.0603562
35 1 0.0640755 0.125238 0.0646039
12 1 0.250575 0.0586501 0.0651664
16 1 0.377449 0.0644169 0.0522015
51 1 0.561761 0.12531 0.0589701
181 1 0.62539 0.129453 0.119671
59 1 0.814284 0.128779 0.0640775
189 1 0.877714 0.119755 0.125972
63 1 0.936664 0.121598 0.0657715
161 1 -0.00193977 0.131493 0.125066
40 1 0.126101 0.183121 0.0655361
44 1 0.24608 0.19033 0.0577723
48 1 0.376665 0.187053 0.0604901
47 1 0.436699 0.125041 0.0631236
52 1 0.497871 0.185895 0.0649458
177 1 0.500338 0.123123 0.119527
56 1 0.623497 0.191724 0.0619306
64 1 0.878009 0.184726 0.0622825
190 1 0.93425 0.186402 0.124739
67 1 0.0656373 0.253745 0.058921
162 1 0.0640282 0.191511 0.125196
197 1 0.128148 0.245894 0.124613
71 1 0.184865 0.24977 0.0608346
79 1 0.436147 0.24603 0.0655056
60 1 0.746774 0.188689 0.05932
221 1 0.874111 0.248523 0.130233
95 1 0.935588 0.249042 0.0660085
68 1 0.00392884 0.311763 0.0601918
202 1 0.318737 0.312381 0.128023
92 1 0.745312 0.311782 0.0630054
218 1 0.816154 0.309264 0.131687
96 1 0.875553 0.312358 0.0593054
99 1 0.0640554 0.376858 0.0608366
194 1 0.0634747 0.312275 0.123312
72 1 0.124665 0.31311 0.0572925
103 1 0.188475 0.373367 0.0600443
237 1 0.384849 0.377964 0.121927
84 1 0.50289 0.308286 0.0590419
115 1 0.554618 0.374163 0.0612631
88 1 0.622227 0.315967 0.0573522
119 1 0.688043 0.377303 0.0605005
222 1 0.941452 0.312988 0.123997
111 1 0.443085 0.377058 0.0615923
245 1 0.627782 0.373169 0.126341
128 1 0.882259 0.441797 0.0604545
253 1 0.8818 0.374509 0.12744
100 1 -0.000271502 0.438465 0.0538987
78 1 0.437009 0.307287 0.00112586
230 1 0.184023 0.433006 0.125637
1287 1 0.185267 0.503455 0.310693
246 1 0.684678 0.434187 0.132509
124 1 0.74494 0.438317 0.066178
511 1 0.942542 0.377715 0.440877
503 1 0.681112 0.374186 0.44113
500 1 0.499284 0.439562 0.43677
130 1 0.0594497 0.0626135 0.133049
137 1 0.248032 -0.00203246 0.126679
134 1 0.185529 0.069898 0.12444
138 1 0.309795 0.0587166 0.12682
90 1 0.803533 0.306841 0.00437057
269 1 0.37973 -6.13001e-05 0.241597
146 1 0.563414 0.0663506 0.119139
152 1 0.625348 0.070462 0.18528
156 1 0.742446 0.06611 0.180264
154 1 0.807716 0.0671736 0.122012
158 1 0.942846 0.0619605 0.129138
165 1 0.127185 0.126985 0.13112
169 1 0.256946 0.125199 0.11735
173 1 0.377951 0.113074 0.122934
142 1 0.44239 0.0595181 0.127007
148 1 0.504556 0.0629824 0.18568
179 1 0.565471 0.123152 0.188496
150 1 0.684228 0.0671609 0.120104
187 1 0.811259 0.127351 0.18507
164 1 0.00472581 0.190148 0.189979
168 1 0.124206 0.189646 0.188376
175 1 0.435227 0.120831 0.190345
182 1 0.689911 0.192166 0.123819
185 1 0.74584 0.132848 0.126964
192 1 0.873545 0.184472 0.189429
191 1 0.938749 0.130787 0.190624
195 1 0.0658044 0.24719 0.197809
166 1 0.193285 0.187189 0.128502
201 1 0.246635 0.246663 0.123701
170 1 0.312107 0.186637 0.122405
205 1 0.37533 0.246251 0.120881
174 1 0.440694 0.180265 0.125974
178 1 0.56311 0.184105 0.125795
217 1 0.749712 0.254389 0.124275
186 1 0.813933 0.18747 0.125972
196 1 0.00932047 0.313113 0.188081
198 1 0.183939 0.311762 0.119253
199 1 0.187707 0.24646 0.189312
206 1 0.440353 0.31028 0.119113
209 1 0.500167 0.246651 0.125001
210 1 0.55844 0.307692 0.125926
213 1 0.624727 0.247292 0.135803
214 1 0.68529 0.311498 0.129744
220 1 0.746436 0.308223 0.190119
193 1 1.00084 0.25151 0.125518
227 1 0.0658427 0.385018 0.189248
229 1 0.122664 0.375227 0.121746
233 1 0.252363 0.373209 0.125687
204 1 0.251656 0.305068 0.17887
208 1 0.372235 0.305298 0.186396
241 1 0.499248 0.374643 0.123952
251 1 0.817726 0.375743 0.188232
224 1 0.879896 0.315112 0.188197
226 1 0.0629288 0.436525 0.122088
235 1 0.317292 0.380263 0.186782
243 1 0.55721 0.380679 0.188485
247 1 0.687251 0.372118 0.188577
249 1 0.751351 0.367014 0.130377
254 1 0.94195 0.438141 0.125773
255 1 0.945984 0.373967 0.18452
225 1 0.00465198 0.372374 0.123472
1173 1 0.619023 0.496953 0.122582
234 1 0.317175 0.445008 0.12458
257 1 0.00475975 0.00506497 0.256955
238 1 0.442049 0.441409 0.125342
242 1 0.558694 0.437503 0.125036
248 1 0.624332 0.442241 0.193238
250 1 0.807355 0.435067 0.126985
132 1 1.00147 0.0662896 0.192402
136 1 0.124984 0.0611697 0.193861
491 1 0.307818 0.377527 0.436801
266 1 0.312508 0.0645084 0.249005
270 1 0.429677 0.0686075 0.25257
274 1 0.567856 0.0569732 0.24393
5 1 0.128524 0.00767794 0.00326828
488 1 0.123562 0.440085 0.440324
278 1 0.685952 0.0699567 0.248072
574 1 0.935679 0.189172 0.49941
160 1 0.88315 0.0670708 0.190799
289 1 0.997952 0.126463 0.255118
163 1 0.0620129 0.13009 0.190349
140 1 0.247077 0.0633066 0.187402
144 1 0.374943 0.0602718 0.189061
301 1 0.370651 0.124591 0.252642
313 1 0.750005 0.12609 0.247285
167 1 0.189851 0.126528 0.196111
171 1 0.315424 0.127481 0.181398
176 1 0.372008 0.189224 0.185515
180 1 0.503948 0.176146 0.183764
183 1 0.684813 0.129837 0.183065
172 1 0.253772 0.183167 0.184471
184 1 0.625271 0.186778 0.192202
215 1 0.685572 0.245996 0.189973
188 1 0.752943 0.192101 0.187479
318 1 0.938646 0.188699 0.254214
325 1 0.129499 0.248502 0.253188
203 1 0.30962 0.246871 0.18735
333 1 0.37011 0.242288 0.246146
207 1 0.439382 0.253974 0.187405
212 1 0.493149 0.31619 0.187833
211 1 0.553342 0.246944 0.190812
341 1 0.620256 0.245897 0.257516
219 1 0.815894 0.250073 0.191734
223 1 0.937057 0.24688 0.189575
321 1 0.00962034 0.248735 0.257887
322 1 0.0697414 0.313502 0.252033
200 1 0.12781 0.313617 0.18181
361 1 0.251458 0.37307 0.24969
338 1 0.554692 0.309011 0.251451
216 1 0.620883 0.321471 0.192864
342 1 0.682672 0.311163 0.245757
346 1 0.81643 0.311518 0.251824
353 1 0.00843735 0.376463 0.250584
232 1 0.124232 0.44183 0.187361
231 1 0.193495 0.370748 0.184585
365 1 0.37062 0.372651 0.249582
239 1 0.440056 0.378712 0.186226
366 1 0.432423 0.432658 0.249963
369 1 0.494604 0.373811 0.251855
373 1 0.624558 0.380367 0.25335
377 1 0.749382 0.374635 0.248849
381 1 0.884726 0.373934 0.247713
382 1 0.943993 0.434351 0.248856
228 1 1.00319 0.438082 0.188072
480 1 0.878438 0.310152 0.436227
236 1 0.250962 0.427912 0.189973
240 1 0.377454 0.448578 0.186246
244 1 0.498657 0.437674 0.188141
370 1 0.556609 0.433002 0.258335
252 1 0.746615 0.434869 0.191586
378 1 0.81607 0.432591 0.252711
256 1 0.883922 0.437388 0.186793
258 1 0.0675421 0.061763 0.2535
264 1 0.130978 0.0604236 0.317946
268 1 0.249955 0.0605768 0.317359
476 1 0.750775 0.308171 0.441498
272 1 0.375743 0.0650506 0.315544
542 1 0.942259 0.0636019 0.491911
499 1 0.567144 0.373162 0.43742
280 1 0.627231 0.0591186 0.314823
1415 1 0.186753 0.500469 0.439265
284 1 0.748395 0.0580841 0.310129
282 1 0.81668 0.061927 0.246341
286 1 0.933185 0.0668835 0.254204
262 1 0.186844 0.0666771 0.255351
299 1 0.309286 0.121444 0.318239
309 1 0.618912 0.126474 0.256517
315 1 0.812037 0.124323 0.314927
319 1 0.93545 0.126661 0.314217
293 1 0.123705 0.127572 0.255369
295 1 0.1928 0.12542 0.320579
297 1 0.251965 0.12476 0.254413
304 1 0.37792 0.186563 0.312719
302 1 0.438131 0.179622 0.248149
305 1 0.500308 0.117762 0.256182
312 1 0.620661 0.182325 0.31719
310 1 0.680698 0.186934 0.256997
314 1 0.807948 0.187425 0.250735
317 1 0.879382 0.130323 0.2524
320 1 0.869658 0.187055 0.315582
290 1 0.0639208 0.183576 0.253121
294 1 0.192699 0.186812 0.251632
300 1 0.255697 0.188279 0.318907
298 1 0.306395 0.189751 0.254035
306 1 0.556316 0.187274 0.256222
343 1 0.683875 0.255532 0.312941
292 1 0.00277802 0.186887 0.318271
328 1 0.134837 0.308603 0.309928
326 1 0.1909 0.312872 0.240977
329 1 0.250844 0.251653 0.248528
337 1 0.493115 0.24424 0.251756
339 1 0.555124 0.248001 0.319344
345 1 0.751073 0.249609 0.246428
348 1 0.753053 0.313989 0.312937
349 1 0.875864 0.255136 0.249093
351 1 0.939611 0.248235 0.309877
357 1 0.12946 0.375613 0.244804
332 1 0.256536 0.313514 0.313793
330 1 0.31233 0.313559 0.244826
363 1 0.315161 0.378868 0.311515
334 1 0.43349 0.315689 0.249927
344 1 0.623898 0.314203 0.313251
350 1 0.941803 0.312703 0.248521
354 1 0.0622931 0.443706 0.248126
371 1 0.555257 0.367876 0.31259
375 1 0.686704 0.373418 0.312054
374 1 0.687592 0.439742 0.253992
380 1 0.744379 0.433104 0.316239
379 1 0.811351 0.37237 0.312119
358 1 0.188141 0.438488 0.246113
362 1 0.311127 0.442653 0.249613
368 1 0.374375 0.44001 0.312793
376 1 0.620298 0.439946 0.312848
1163 1 0.305541 0.501068 0.186968
279 1 0.688017 0.00115084 0.311935
384 1 0.876755 0.430533 0.316104
460 1 0.253392 0.313976 0.437048
356 1 -0.000422472 0.443414 0.310852
1049 1 0.748236 0.502611 -0.00410628
487 1 0.187353 0.377308 0.441387
586 1 0.31098 0.317394 0.501135
402 1 0.571805 0.0623802 0.380299
1433 1 0.744978 0.498473 0.374575
406 1 0.686888 0.0586125 0.375144
1305 1 0.750602 0.497282 0.259332
288 1 0.873569 0.0631811 0.307335
45 1 0.37263 0.130716 -0.00255979
260 1 -0.00369489 0.069195 0.313016
386 1 0.0616259 0.0600401 0.371361
421 1 0.123723 0.131349 0.374711
390 1 0.189609 0.0547093 0.376228
429 1 0.370662 0.12173 0.377776
303 1 0.434175 0.123778 0.321123
276 1 0.497316 0.0613946 0.311546
307 1 0.561242 0.12293 0.315353
437 1 0.632703 0.119831 0.372581
311 1 0.697675 0.123532 0.313927
441 1 0.753967 0.132295 0.373902
414 1 0.939491 0.0674641 0.372819
291 1 0.059239 0.123789 0.314438
425 1 0.248526 0.123126 0.378492
308 1 0.49796 0.181729 0.314526
438 1 0.69229 0.187487 0.37688
445 1 0.87246 0.125403 0.373593
417 1 0.00444162 0.127258 0.376636
323 1 0.071829 0.249733 0.317804
418 1 0.0684524 0.197596 0.376248
296 1 0.135459 0.187406 0.312577
327 1 0.194448 0.254706 0.313229
331 1 0.309921 0.250948 0.312112
335 1 0.43821 0.252284 0.312856
430 1 0.437755 0.19054 0.380347
465 1 0.498761 0.250047 0.38157
316 1 0.747292 0.196084 0.313867
442 1 0.811025 0.19677 0.376812
477 1 0.88232 0.248334 0.372199
446 1 0.936374 0.185047 0.376409
449 1 0.00436894 0.251902 0.370797
453 1 0.134297 0.254637 0.376603
336 1 0.371445 0.309739 0.309917
340 1 0.495357 0.314132 0.315047
469 1 0.620785 0.244265 0.371181
347 1 0.818347 0.251237 0.311399
352 1 0.88038 0.30992 0.310923
324 1 0.0097912 0.316723 0.311772
355 1 0.0794077 0.369616 0.314132
359 1 0.191085 0.380449 0.315179
501 1 0.620051 0.371408 0.368932
474 1 0.813893 0.307412 0.376295
482 1 0.0567266 0.438762 0.364636
485 1 0.126931 0.369994 0.38287
486 1 0.181069 0.433039 0.374777
364 1 0.249001 0.440089 0.315554
490 1 0.31514 0.43783 0.376921
367 1 0.428764 0.375737 0.310483
497 1 0.504453 0.3696 0.381416
506 1 0.812511 0.435677 0.373769
509 1 0.874491 0.366528 0.372627
383 1 0.940394 0.373044 0.309526
360 1 0.123494 0.439259 0.303079
94 1 0.940266 0.311274 0.00661098
471 1 0.685987 0.25182 0.444719
573 1 0.87956 0.123595 0.496439
1035 1 0.309104 0.492605 0.0559985
372 1 0.501752 0.439976 0.317886
502 1 0.683661 0.433653 0.376329
472 1 0.621908 0.310025 0.443027
510 1 0.939802 0.435758 0.373355
463 1 0.444849 0.25078 0.444612
392 1 0.123888 0.064355 0.43002
396 1 0.255612 0.0566056 0.44151
394 1 0.313335 0.0571669 0.371541
398 1 0.434407 0.0643033 0.37728
408 1 0.629808 0.0669084 0.446375
1307 1 0.817634 0.495047 0.309565
410 1 0.813312 0.0605932 0.370584
419 1 0.0641156 0.132742 0.432895
431 1 0.442918 0.12878 0.44196
435 1 0.566496 0.126511 0.44066
447 1 0.943653 0.124588 0.436993
388 1 0.00780582 0.0648649 0.435978
420 1 0.999597 0.188926 0.437468
422 1 0.193211 0.1889 0.380135
426 1 0.31767 0.182715 0.375764
436 1 0.500121 0.187077 0.444079
433 1 0.499756 0.119627 0.378696
439 1 0.689501 0.125437 0.432867
443 1 0.81142 0.126947 0.437694
451 1 0.0650816 0.25234 0.440941
457 1 0.252079 0.24884 0.380471
459 1 0.3187 0.251133 0.439802
461 1 0.373039 0.247593 0.375393
434 1 0.561073 0.187834 0.382711
467 1 0.560235 0.24807 0.445302
440 1 0.626077 0.189176 0.440103
444 1 0.747594 0.194017 0.441384
448 1 0.874587 0.185459 0.43812
479 1 0.940428 0.251035 0.436352
450 1 0.0678187 0.31353 0.375571
464 1 0.370203 0.313679 0.4418
466 1 0.560298 0.307318 0.378388
470 1 0.685995 0.316563 0.383662
473 1 0.743026 0.252165 0.379693
478 1 0.941885 0.313859 0.373536
452 1 0.000965317 0.320754 0.434935
454 1 0.189976 0.319269 0.377506
489 1 0.253193 0.378569 0.372653
458 1 0.319618 0.316771 0.371993
462 1 0.43368 0.309891 0.380618
481 1 0.000109729 0.374478 0.372787
483 1 0.067685 0.379759 0.435494
492 1 0.246805 0.437582 0.430893
493 1 0.377648 0.376729 0.378422
495 1 0.437531 0.37575 0.44026
498 1 0.562943 0.439081 0.379681
505 1 0.748811 0.367395 0.381662
507 1 0.816081 0.364425 0.438356
484 1 0.0039698 0.438872 0.438944
455 1 0.191151 0.24854 0.444435
468 1 0.49637 0.317223 0.439784
416 1 0.877243 0.0674407 0.435044
496 1 0.37195 0.431598 0.439077
494 1 0.43563 0.433924 0.371333
424 1 0.128954 0.191934 0.442652
456 1 0.130736 0.310982 0.439945
508 1 0.743784 0.435128 0.433797
512 1 0.876693 0.436985 0.438026
277 1 0.631266 0.00439487 0.249477
149 1 0.624745 0.000535598 0.125077
432 1 0.378797 0.19153 0.436243
533 1 0.620968 -0.00107651 0.500694
400 1 0.372712 0.063545 0.444694
404 1 0.497365 0.0653627 0.444232
578 1 0.0657814 0.315932 0.492286
412 1 0.751432 0.0659526 0.433699
475 1 0.815858 0.24885 0.442976
428 1 0.251741 0.188515 0.441768
6 1 0.191107 0.0666749 0.000609457
427 1 0.311803 0.123393 0.437632
423 1 0.187292 0.1247 0.43764
7 1 0.181643 0.00560081 0.0660499
387 1 0.0671283 0.00189013 0.437163
518 1 0.183578 0.0623638 0.491786
618 1 0.312255 0.444211 0.50153
27 1 0.815663 -0.000379615 0.0669778
74 1 0.316411 0.310924 0.00250927
411 1 0.817951 0.000648644 0.445455
155 1 0.81802 0.00652338 0.185227
147 1 0.564449 0.00416439 0.182867
23 1 0.686613 0.00187782 0.0665796
58 1 0.81412 0.1882 0.00198718
285 1 0.878528 0.00271029 0.246838
1421 1 0.371082 0.50146 0.375268
577 1 0.00256457 0.25424 0.496672
637 1 0.877656 0.376392 0.497444
281 1 0.751847 0.00708762 0.240971
401 1 0.496385 0.0026376 0.371933
546 1 0.0613566 0.190662 0.496088
1179 1 0.811846 0.49715 0.194261
1177 1 0.742667 0.495776 0.130609
617 1 0.250713 0.373172 0.500305
1439 1 0.942259 0.496823 0.435237
15 1 0.435235 0.00244331 0.0603782
626 1 0.559623 0.441484 0.496242
287 1 0.937434 0.0039774 0.315351
537 1 0.754381 0.00410082 0.496798
9 1 0.252948 0.0061606 0.000332842
125 1 0.875304 0.377532 0.00478724
57 1 0.755092 0.123018 0.00273614
566 1 0.687549 0.187511 0.498738
42 1 0.309961 0.189431 -0.00135965
621 1 0.377688 0.374487 0.502295
538 1 0.811309 0.0655608 0.497589
33 1 0.998112 0.127119 0.0035993
569 1 0.750857 0.130163 0.496443
634 1 0.80888 0.443839 0.488754
625 1 0.50029 0.381093 0.496261
62 1 0.93744 0.183772 0.00341275
37 1 0.126104 0.126592 0.00269802
565 1 0.6281 0.124423 0.501737
1695 1 0.935763 0.496242 0.685847
645 1 0.123862 0.00347451 0.626576
1671 1 0.190485 0.495543 0.681701
516 1 -0.000114786 0.0652843 0.562413
1557 1 0.627594 0.497919 0.498627
547 1 0.0628259 0.126792 0.555874
551 1 0.191606 0.12759 0.565968
555 1 0.313754 0.127132 0.565344
903 1 0.191169 0.00272169 0.940015
528 1 0.377824 0.0665295 0.56431
559 1 0.437667 0.123975 0.559195
536 1 0.630301 0.0589552 0.564822
614 1 0.180182 0.439801 0.500415
1931 1 0.310534 0.498225 0.935079
1675 1 0.313987 0.495429 0.681984
575 1 0.933371 0.128728 0.559563
548 1 0.999679 0.189054 0.558079
1935 1 0.43671 0.498618 0.930458
560 1 0.37541 0.18611 0.565753
563 1 0.561338 0.127318 0.560299
568 1 0.631492 0.178517 0.563664
567 1 0.693599 0.119289 0.564755
622 1 0.437302 0.438272 0.499259
1037 1 0.370423 0.500898 0.999473
552 1 0.123317 0.187078 0.55336
655 1 0.43569 0.00457105 0.68736
556 1 0.249477 0.186038 0.557526
34 1 0.0681173 0.185274 1.00055
591 1 0.437443 0.250411 0.56615
1941 1 0.622038 0.49766 0.884881
576 1 0.874468 0.188092 0.56285
607 1 0.940286 0.249872 0.556752
1567 1 0.931759 0.500799 0.563422
587 1 0.308782 0.248624 0.567311
771 1 0.06754 0.00978597 0.806725
596 1 0.501607 0.318768 0.563409
85 1 0.622992 0.255893 1.00017
126 1 0.942208 0.434449 0.996268
1929 1 0.250475 0.499953 0.872959
647 1 0.18689 0.0027645 0.686995
580 1 0.00341075 0.311978 0.56337
611 1 0.0605274 0.377371 0.562439
659 1 0.562172 -0.00261328 0.68753
1945 1 0.747385 0.500051 0.875163
554 1 0.311827 0.186834 0.499833
627 1 0.558994 0.376242 0.570564
600 1 0.619922 0.317774 0.567789
102 1 0.188721 0.432659 1.00316
1923 1 0.0672587 0.500978 0.930082
615 1 0.190098 0.377205 0.559815
620 1 0.248631 0.441326 0.557972
619 1 0.308044 0.3782 0.559981
1693 1 0.87234 0.494029 0.618956
632 1 0.620752 0.435195 0.56749
643 1 0.0630614 -0.0011488 0.693426
773 1 0.12836 0.00417468 0.748599
1053 1 0.881909 0.500477 0.994885
515 1 0.0635389 -0.00347634 0.562794
589 1 0.37424 0.257127 0.504584
616 1 0.127808 0.441432 0.568085
106 1 0.310075 0.437958 0.994773
628 1 0.503067 0.440375 0.556948
996 1 0.00374696 0.432344 0.936388
1801 1 0.257087 0.4953 0.748224
640 1 0.87298 0.431088 0.558659
520 1 0.12883 0.0634576 0.561226
654 1 0.439281 0.0629332 0.626323
532 1 0.505322 0.0606604 0.557247
662 1 0.692717 0.0578644 0.627581
97 1 -0.00210348 0.374003 1.0011
597 1 0.621111 0.24081 0.505309
544 1 0.870485 0.0631008 0.561178
1024 1 0.879424 0.433994 0.939099
646 1 0.195456 0.0628811 0.622369
524 1 0.250694 0.065827 0.557908
685 1 0.375285 0.120624 0.624506
689 1 0.504086 0.12473 0.626388
658 1 0.560816 0.0623241 0.626623
540 1 0.751168 0.05932 0.564881
674 1 0.0642128 0.190809 0.617771
677 1 0.12615 0.126041 0.616817
681 1 0.250126 0.125497 0.626559
686 1 0.437248 0.183171 0.623737
564 1 0.499446 0.187274 0.564524
572 1 0.747503 0.183546 0.566812
571 1 0.81184 0.129681 0.563081
698 1 0.810754 0.187601 0.6298
701 1 0.873749 0.127682 0.627123
673 1 0.997691 0.132747 0.624657
583 1 0.188674 0.241772 0.567805
682 1 0.310665 0.189356 0.624897
717 1 0.383221 0.243734 0.625681
721 1 0.499119 0.247765 0.627261
729 1 0.749889 0.253026 0.621473
702 1 0.930792 0.188994 0.626752
579 1 0.0633022 0.249248 0.555273
584 1 0.125084 0.313303 0.559607
709 1 0.120377 0.248936 0.624449
588 1 0.253382 0.311268 0.563139
592 1 0.373369 0.314754 0.565501
718 1 0.438032 0.317328 0.62112
595 1 0.559853 0.24998 0.567652
599 1 0.67914 0.248091 0.566432
604 1 0.75014 0.311533 0.559649
603 1 0.812736 0.249196 0.560609
623 1 0.43588 0.380372 0.562633
753 1 0.500142 0.381246 0.625933
757 1 0.625466 0.374724 0.628722
761 1 0.751532 0.376044 0.619338
608 1 0.871358 0.315599 0.557774
639 1 0.941589 0.376326 0.560253
612 1 0.99484 0.437696 0.564304
741 1 0.124316 0.37278 0.619547
745 1 0.24889 0.372902 0.620869
749 1 0.37387 0.374243 0.624561
750 1 0.441605 0.442242 0.620721
631 1 0.686362 0.378014 0.562674
635 1 0.806746 0.383362 0.554579
1667 1 0.0615542 0.496282 0.687331
746 1 0.309902 0.441546 0.618997
624 1 0.376025 0.438753 0.562559
754 1 0.557633 0.444015 0.624403
636 1 0.74611 0.440604 0.557503
70 1 0.190127 0.31384 0.99546
642 1 0.0633858 0.0647829 0.619794
648 1 0.12587 0.068384 0.682411
1019 1 0.812177 0.37819 0.938938
652 1 0.25405 0.056861 0.686883
650 1 0.314565 0.0622646 0.626659
656 1 0.379248 0.0635239 0.687935
660 1 0.500139 0.0615503 0.686064
30 1 0.933788 0.0669105 1.00164
630 1 0.687814 0.438472 0.497503
1795 1 0.0572265 0.492532 0.810811
670 1 0.939395 0.0701131 0.621141
691 1 0.568209 0.118877 0.690761
664 1 0.631632 0.0614979 0.687714
666 1 0.815003 0.0562356 0.626381
675 1 0.0590866 0.127301 0.680259
679 1 0.190498 0.125943 0.687508
683 1 0.314162 0.121363 0.687082
688 1 0.38029 0.183565 0.686006
687 1 0.439226 0.126453 0.687366
692 1 0.502462 0.186989 0.684298
690 1 0.571895 0.183287 0.622951
693 1 0.628024 0.119567 0.626605
697 1 0.749547 0.122882 0.626794
700 1 0.750479 0.190705 0.688323
704 1 0.875907 0.183401 0.685654
703 1 0.936736 0.124513 0.689461
680 1 0.125787 0.178931 0.684564
678 1 0.188259 0.187638 0.629578
713 1 0.249282 0.253008 0.63033
715 1 0.313455 0.249103 0.685034
719 1 0.43931 0.253771 0.688669
723 1 0.560354 0.251734 0.689556
725 1 0.618799 0.247329 0.630333
694 1 0.689362 0.187406 0.62736
733 1 0.875691 0.255611 0.621584
712 1 0.116205 0.312511 0.685798
710 1 0.182703 0.311239 0.620104
720 1 0.373261 0.311768 0.68532
730 1 0.812909 0.311622 0.623531
731 1 0.810636 0.249803 0.686913
705 1 -0.000584934 0.250595 0.618767
735 1 0.932374 0.255827 0.680018
706 1 0.0646515 0.309449 0.622646
714 1 0.309156 0.315026 0.626503
751 1 0.437432 0.377684 0.683695
722 1 0.559335 0.317123 0.629202
726 1 0.690169 0.307515 0.625245
765 1 0.874792 0.367495 0.620141
734 1 0.940741 0.3124 0.61857
738 1 0.0582991 0.435519 0.61759
743 1 0.182654 0.369879 0.679837
748 1 0.251941 0.438736 0.68359
747 1 0.313437 0.378678 0.685091
756 1 0.499998 0.443336 0.687862
737 1 0.000229143 0.377498 0.626992
744 1 0.126082 0.438539 0.678692
742 1 0.189588 0.437449 0.623149
752 1 0.380275 0.438528 0.682894
73 1 0.244965 0.250418 1.00088
1012 1 0.493885 0.440175 0.93152
760 1 0.623537 0.441283 0.684126
758 1 0.691989 0.440656 0.62684
764 1 0.751473 0.436418 0.68586
762 1 0.808631 0.437609 0.625128
766 1 0.930462 0.436025 0.619437
581 1 0.131611 0.253054 0.497061
774 1 0.192082 0.0614048 0.746822
778 1 0.314823 0.0625 0.758322
782 1 0.433019 0.059377 0.75165
1007 1 0.440571 0.374079 0.932796
786 1 0.566434 0.0572495 0.750992
641 1 0.00486185 -0.000238605 0.630424
790 1 0.6842 0.0536347 0.758737
38 1 0.186148 0.186293 1.00015
1933 1 0.374753 0.498419 0.873635
801 1 0.998555 0.12939 0.74483
809 1 0.250016 0.123913 0.751636
817 1 0.508858 0.114409 0.753006
821 1 0.630404 0.121077 0.749426
668 1 0.748538 0.0590699 0.68859
699 1 0.810681 0.128708 0.689888
672 1 0.871807 0.0641763 0.689038
644 1 0.999717 0.0664093 0.68201
676 1 0.995401 0.1941 0.686103
805 1 0.13341 0.125957 0.747477
810 1 0.314079 0.186251 0.751389
813 1 0.371293 0.129904 0.750519
814 1 0.437851 0.185548 0.745806
818 1 0.564013 0.182879 0.748927
695 1 0.688403 0.123624 0.683022
826 1 0.80513 0.189893 0.753289
711 1 0.18432 0.248626 0.689015
806 1 0.187477 0.188959 0.749292
684 1 0.249622 0.183145 0.692628
845 1 0.376056 0.251043 0.748395
849 1 0.497888 0.242601 0.747705
696 1 0.625973 0.188856 0.69148
853 1 0.62196 0.247895 0.753485
861 1 0.868791 0.242669 0.746136
830 1 0.937505 0.186702 0.747809
707 1 0.0641211 0.243718 0.68451
837 1 0.124154 0.249333 0.749856
716 1 0.246113 0.314132 0.685568
841 1 0.255013 0.248856 0.752934
724 1 0.496162 0.315367 0.683793
728 1 0.623238 0.310865 0.684734
727 1 0.685768 0.250844 0.68935
736 1 0.87123 0.315794 0.6838
838 1 0.185188 0.308847 0.746522
873 1 0.249876 0.379471 0.750387
755 1 0.561348 0.379047 0.683823
732 1 0.748876 0.309906 0.689
708 1 0.000400837 0.306593 0.681213
739 1 0.057155 0.378995 0.689771
869 1 0.122185 0.370203 0.74892
877 1 0.37083 0.375557 0.748243
878 1 0.429925 0.440311 0.75223
759 1 0.68719 0.372798 0.686842
763 1 0.8096 0.375763 0.681666
767 1 0.938936 0.376497 0.685164
866 1 0.065777 0.430259 0.752662
870 1 0.183532 0.434278 0.751153
534 1 0.694922 0.063391 0.500305
593 1 0.502876 0.252086 0.507605
890 1 0.816169 0.440501 0.750696
768 1 0.874887 0.429309 0.680657
740 1 0.999464 0.440358 0.689202
1033 1 0.250987 0.497228 0.995793
770 1 0.0609796 0.0700921 0.744203
1819 1 0.810213 0.497623 0.814224
784 1 0.374272 0.0593054 0.818288
98 1 0.0663982 0.441049 0.998532
788 1 0.496999 0.0577389 0.8214
671 1 0.936885 0.000125585 0.688722
792 1 0.623802 0.056129 0.81441
1004 1 0.249173 0.438629 0.933969
796 1 0.752973 0.056383 0.816295
780 1 0.24714 0.0647229 0.811136
811 1 0.317989 0.12961 0.813175
819 1 0.560089 0.123291 0.818021
823 1 0.687589 0.116214 0.815448
825 1 0.742068 0.115815 0.74694
794 1 0.808233 0.0626333 0.74626
829 1 0.870756 0.123663 0.749306
798 1 0.940486 0.0635451 0.74562
804 1 -0.00482884 0.187982 0.813408
807 1 0.189038 0.1292 0.808566
815 1 0.437263 0.122075 0.813111
824 1 0.6257 0.177735 0.813814
822 1 0.689057 0.181223 0.752756
802 1 0.0650333 0.182631 0.745213
808 1 0.125309 0.189965 0.817741
812 1 0.254832 0.189955 0.812982
843 1 0.312199 0.251578 0.811436
847 1 0.437091 0.251061 0.808934
851 1 0.558467 0.250116 0.815011
859 1 0.810792 0.250495 0.813743
863 1 0.938275 0.250685 0.804132
834 1 0.0602804 0.309993 0.750473
835 1 0.0600482 0.247785 0.807162
839 1 0.188515 0.245611 0.810796
848 1 0.374204 0.311354 0.811938
846 1 0.436572 0.315483 0.746913
852 1 0.499304 0.315857 0.80637
850 1 0.564303 0.313933 0.746767
857 1 0.749752 0.253279 0.758641
858 1 0.81191 0.309292 0.752133
862 1 0.936928 0.311289 0.745748
833 1 0.000417254 0.251568 0.746234
844 1 0.246284 0.312204 0.812862
842 1 0.313554 0.30985 0.744141
881 1 0.498651 0.378521 0.74404
885 1 0.625 0.384198 0.745008
854 1 0.685127 0.309053 0.753165
871 1 0.189638 0.375282 0.810623
884 1 0.500002 0.4368 0.81204
882 1 0.558741 0.437839 0.747653
886 1 0.687319 0.445697 0.748568
889 1 0.747871 0.373131 0.744535
891 1 0.814842 0.372981 0.80658
893 1 0.873149 0.371269 0.745088
865 1 0.997615 0.374624 0.748642
868 1 0.991568 0.432124 0.81214
53 1 0.624374 0.125983 0.996607
594 1 0.563083 0.311668 0.50538
874 1 0.31738 0.438377 0.747838
880 1 0.372467 0.434347 0.811408
964 1 -0.000326914 0.310443 0.938192
892 1 0.749409 0.432577 0.805282
894 1 0.932523 0.438042 0.748118
653 1 0.373064 0.00586718 0.624557
26 1 0.811332 0.0583524 0.998201
988 1 0.746531 0.307069 0.93865
523 1 0.315506 0.000875684 0.565457
1951 1 0.940325 0.493297 0.93343
562 1 0.558015 0.186513 0.50143
999 1 0.188929 0.375727 0.937313
799 1 0.940601 0.00643094 0.815042
22 1 0.696457 0.0633248 0.995715
1821 1 0.877107 0.502445 0.751376
772 1 0.00160223 0.0627193 0.817705
803 1 0.0684413 0.128399 0.810622
776 1 0.129278 0.0643774 0.808918
906 1 0.309249 0.0600115 0.870931
941 1 0.378866 0.126777 0.875448
910 1 0.435854 0.0643231 0.876829
945 1 0.493922 0.122892 0.877173
914 1 0.559511 0.0602243 0.878323
827 1 0.811056 0.124091 0.809857
800 1 0.872557 0.0593726 0.811054
926 1 0.939113 0.0612142 0.878048
937 1 0.245893 0.124319 0.875233
816 1 0.381019 0.191168 0.809209
820 1 0.49819 0.183532 0.805282
949 1 0.622576 0.11821 0.875483
828 1 0.748861 0.186955 0.817176
832 1 0.871724 0.189599 0.820638
831 1 0.932963 0.12183 0.81921
965 1 0.125637 0.259203 0.873984
934 1 0.183358 0.186362 0.875782
938 1 0.308846 0.190078 0.876113
973 1 0.372689 0.252748 0.877458
981 1 0.619676 0.251995 0.873435
950 1 0.686611 0.180815 0.874798
836 1 0.996636 0.310963 0.810283
969 1 0.249143 0.253637 0.87446
977 1 0.491598 0.253987 0.875142
856 1 0.625143 0.312331 0.808481
855 1 0.68715 0.245262 0.813546
982 1 0.68173 0.311906 0.873376
860 1 0.747174 0.316673 0.8116
989 1 0.87397 0.256259 0.877926
867 1 0.0552122 0.373738 0.809861
840 1 0.117709 0.310788 0.808405
875 1 0.310708 0.371851 0.814608
1009 1 0.502952 0.377262 0.872995
883 1 0.565219 0.381865 0.809589
887 1 0.683439 0.378631 0.806567
864 1 0.876295 0.311162 0.814104
1021 1 0.866351 0.375983 0.877648
990 1 0.934482 0.312169 0.875421
994 1 0.0647758 0.43302 0.871802
872 1 0.126011 0.43795 0.817342
876 1 0.252481 0.437548 0.81301
879 1 0.436209 0.372741 0.809227
1018 1 0.808048 0.438634 0.877521
895 1 0.932933 0.373625 0.805414
998 1 0.188082 0.43783 0.873689
1002 1 0.313566 0.431947 0.870477
1006 1 0.435493 0.438493 0.870113
1921 1 1.00295 0.495812 0.875391
983 1 0.688818 0.246348 0.932997
888 1 0.626929 0.441989 0.807486
1014 1 0.685502 0.435683 0.872363
1943 1 0.685556 0.496652 0.939214
896 1 0.869449 0.437258 0.815776
984 1 0.617755 0.316961 0.935405
928 1 0.875549 0.0566896 0.939621
951 1 0.681295 0.124893 0.936114
912 1 0.381097 0.0683641 0.939182
916 1 0.498667 0.0606803 0.937278
963 1 0.0623084 0.248832 0.937501
918 1 0.689061 0.0552722 0.872526
947 1 0.560445 0.120383 0.93408
955 1 0.811343 0.127509 0.938357
898 1 0.0632469 0.0591392 0.881356
902 1 0.185287 0.0631314 0.876052