ITEM: TIMESTEP
100000
ITEM: NUMBER OF ATOMS
2048
ITEM: BOX BOUNDS pp pp pp
0.0000000000000000e+00 1.3153131063095840e+01
0.0000000000000000e+00 1.3153131063095840e+01
0.0000000000000000e+00 1.3153131063095840e+01
ITEM: ATOMS id type xs ys zs
324 1 0.0722745 0.490101 0.242074
1242 1 0.117993 0.0162366 0.0852629
1434 1 0.148984 0.0770152 0.018309
1986 1 0.0695021 0.742912 0.298026
1352 1 0.402799 0.548551 0.276303
2008 1 0.310647 0.158083 0.0748894
2030 1 0.471453 0.402017 0.22356
223 1 0.46368 0.159588 0.0996934
731 1 0.495594 0.988685 0.0567598
575 1 0.455534 0.259566 0.0513493
1640 1 0.0956739 0.960945 0.00303031
188 1 0.327107 0.561567 0.192799
735 1 0.352417 0.716896 0.443473
469 1 0.42957 0.353497 0.0139126
591 1 0.116343 0.502777 0.476326
366 1 0.0206671 0.677239 0.00354574
330 1 0.128336 0.388209 0.429665
711 1 0.0508236 0.885189 0.00664284
176 1 0.0372647 0.366937 0.070421
688 1 0.0208267 0.385821 0.415401
992 1 0.258842 0.0195973 0.405879
664 1 0.056071 0.726785 0.167655
32 1 0.449331 0.142527 0.252558
1060 1 0.0258117 0.127478 0.0643037
453 1 0.13667 0.358336 0.240984
1308 1 0.469261 0.719187 0.162794
1790 1 0.442557 0.375545 0.461817
975 1 0.102828 0.298627 0.172098
187 1 0.184429 0.0757012 0.0941397
2032 1 0.376769 0.768099 0.368945
1736 1 0.226209 0.981163 0.471497
1068 1 0.337033 0.742969 0.14335
1219 1 0.190273 0.564928 0.115663
2048 1 0.352241 0.307684 0.347117
1176 1 0.396961 0.399622 0.126858
1899 1 0.093884 0.726181 0.024638
1428 1 0.111528 0.0331065 0.351933
438 1 0.283931 0.989586 0.118885
1998 1 0.389998 0.866525 0.375895
1897 1 0.307062 0.727297 0.0738826
12 1 0.327315 0.876328 0.192157
2013 1 0.19907 0.810922 0.254982
515 1 0.465223 0.12942 0.461587
1909 1 0.350526 0.982096 0.222115
1971 1 0.413168 0.568945 0.199075
179 1 0.255438 0.697358 0.186654
1196 1 0.250119 0.870205 0.229012
1881 1 0.228423 0.156321 0.115146
1231 1 0.385956 0.17084 0.0594615
418 1 0.0236795 0.561628 0.250236
1285 1 0.425871 0.855143 0.0586852
1901 1 0.491513 0.320716 0.156103
1049 1 0.0596099 0.748847 0.0902101
1035 1 0.0494742 0.0090129 0.329795
1744 1 0.10649 0.0295499 0.251116
348 1 0.377855 0.635821 0.215627
1138 1 0.277243 0.158853 0.408091
244 1 0.175236 0.873091 0.488275
100 1 0.313473 0.176235 0.159238
1923 1 0.362671 0.234353 0.463855
1503 1 0.128307 0.970406 0.207249
207 1 0.47747 0.214054 0.483255
1312 1 0.129237 0.995124 0.412233
771 1 0.378814 0.305282 0.171465
1298 1 0.41125 0.870993 0.500849
125 1 0.221589 0.176541 0.469551
727 1 0.252925 0.258763 0.0168769
1063 1 0.431828 0.338544 0.206108
1874 1 0.43281 0.190005 0.425982
238 1 0.305546 0.847195 0.0189298
372 1 0.00997689 0.143562 0.441773
602 1 0.343061 0.374894 0.178455
1979 1 0.444828 0.857629 0.153156
1819 1 0.0482787 0.291411 0.103406
2022 1 0.291382 0.470772 0.039053
166 1 0.302632 0.0797227 0.403583
877 1 0.366713 0.147811 0.253632
1873 1 0.17928 0.268772 0.0185087
486 1 0.0531654 0.334258 0.501141
1410 1 0.408466 0.26064 0.39433
1258 1 0.0319381 0.81622 0.262594
1472 1 0.258636 0.838089 0.456648
522 1 0.166268 0.70661 0.00241684
685 1 0.38223 0.453577 0.423298
640 1 0.245078 0.759536 0.0359839
345 1 0.374529 0.716436 0.217481
910 1 0.258307 0.802163 0.312566
1111 1 0.467615 0.586738 0.275378
1692 1 0.0840192 0.108717 0.420934
363 1 0.484762 0.73568 0.0873685
932 1 0.460936 0.63219 0.185363
1000 1 0.243961 0.906171 0.443418
2025 1 0.346655 0.54346 0.0345875
2045 1 0.0691447 0.442278 0.186064
370 1 0.120542 0.806876 0.102299
604 1 0.300371 0.756406 0.2047
334 1 0.12385 0.31446 0.456587
1520 1 0.0304399 0.764019 0.0158927
1512 1 0.427788 0.716197 0.0351844
1107 1 0.329671 0.944025 0.313214
1088 1 0.195807 0.704589 0.136719
81 1 0.142719 0.419926 0.155013
738 1 0.196715 0.912093 0.108581
1160 1 0.113943 0.898938 0.0956624
1310 1 0.240996 0.366077 0.0346637
2 1 0.102829 0.291609 0.260216
1206 1 0.044531 0.0701983 0.114173
1462 1 0.214316 0.13504 0.0185247
1620 1 0.221557 0.963533 0.158127
1058 1 0.486671 0.0311278 0.13162
1928 1 0.389905 0.22555 0.00843816
408 1 0.338695 0.0381369 0.134559
1944 1 0.287171 0.348632 0.372677
619 1 0.319182 0.203007 0.0173423
1982 1 0.0902321 0.439506 0.0680385
203 1 0.0144193 0.286852 0.336102
1189 1 0.164712 0.37668 0.0351547
622 1 0.335937 0.889231 0.0732897
650 1 0.3684 0.103372 0.0918184
531 1 0.0226659 0.115909 0.370282
1630 1 0.456964 0.450581 0.451333
1965 1 0.0594274 0.644517 0.196181
1871 1 0.00211048 0.362217 0.34827
561 1 0.194977 0.439789 0.203126
1941 1 0.485985 0.890957 0.223927
1278 1 0.172524 0.19995 0.083517
163 1 0.130498 0.501789 0.0695758
1754 1 0.271506 0.413126 0.183525
907 1 0.48597 0.453013 0.278653
173 1 0.39328 0.574376 0.121821
1606 1 0.139384 0.957079 0.133648
11 1 0.251454 0.661163 0.0386641
610 1 0.450916 0.270267 0.280861
697 1 0.241843 0.778175 0.111239
574 1 0.278339 0.0454545 0.476591
763 1 0.363886 0.812754 0.157039
1277 1 0.437381 0.111917 0.159418
1764 1 0.180345 0.811173 0.0475222
1038 1 0.113226 0.688375 0.151443
502 1 0.0372639 0.294592 0.0308218
261 1 0.136145 0.76633 0.167152
967 1 0.194178 0.898196 0.190308
503 1 0.12193 0.643861 0.0210623
1009 1 0.485244 0.0772696 0.301423
1505 1 0.245307 0.986741 0.0301096
384 1 0.0895336 0.963914 0.279347
547 1 -0.000893452 0.0679448 0.28712
1976 1 0.265783 0.0657127 0.0626455
1495 1 0.372352 0.880626 0.293844
1650 1 0.334311 0.104716 0.0204745
989 1 0.213713 0.0877495 0.161893
1813 1 0.103037 0.763039 0.448505
160 1 0.177899 0.0848211 0.306471
1500 1 0.381007 0.283837 0.055136
935 1 0.122771 0.0768252 0.140056
1040 1 0.286707 0.106404 0.126004
1741 1 0.152475 0.142162 0.125982
1345 1 0.273366 0.045679 0.203326
1878 1 0.416738 0.973401 0.100407
45 1 0.246442 0.297628 0.263452
493 1 0.171018 0.214387 0.156697
803 1 0.409746 0.218597 0.245772
862 1 0.353391 0.111206 0.167672
546 1 0.285196 0.214252 0.458758
1506 1 0.269886 0.915648 0.128958
1891 1 0.250644 0.247512 0.394399
1429 1 0.113827 0.327005 0.057766
647 1 0.181237 0.498924 0.144474
1578 1 0.461366 0.392077 0.0840417
1562 1 0.087844 0.370197 0.178008
1484 1 0.244025 0.5231 0.0809724
1893 1 0.249154 0.55861 0.177455
1218 1 0.369946 0.340174 0.435622
1246 1 0.0726427 0.334159 0.382362
474 1 0.392981 0.64615 0.143277
1769 1 0.432648 0.411584 0.30712
1703 1 0.26462 0.597743 0.265708
192 1 0.0150107 0.203694 0.124293
300 1 0.348152 0.698615 0.291118
423 1 0.0277671 0.57653 0.0850093
359 1 0.0295074 0.710111 0.247496
425 1 0.227801 0.710303 0.477108
1799 1 0.130413 0.433555 0.249832
1478 1 0.493842 0.138283 0.195197
136 1 0.391595 0.784578 0.266089
1796 1 0.113534 0.728815 0.233231
2012 1 0.227465 0.775955 0.198016
1795 1 0.256075 0.729839 0.270904
5 1 0.183681 0.844481 0.125594
843 1 0.189938 0.515144 0.480806
449 1 0.223045 0.940835 0.306906
760 1 0.469371 0.820382 0.478633
178 1 0.471337 0.292637 0.492603
1325 1 0.0719506 0.793662 0.203652
389 1 0.274535 0.957078 0.373795
1010 1 0.315897 0.835967 0.260623
944 1 0.195953 0.197078 0.390767
243 1 0.0932203 0.862329 0.213986
10 1 0.20215 0.00159194 0.0881194
1303 1 0.299452 0.839124 0.120994
835 1 0.192866 0.613689 0.0254082
1895 1 0.358945 0.0567201 0.220815
1863 1 0.360303 0.986738 0.466964
1475 1 0.216791 0.0408055 0.246062
668 1 0.328897 0.230093 0.241595
1648 1 0.2908 0.00880629 0.294385
1849 1 0.48263 0.153782 0.348491
490 1 0.148 0.0978479 0.224572
1666 1 0.456577 0.0170562 0.21848
915 1 0.118178 0.93045 0.495871
50 1 0.292091 0.302825 0.204827
42 1 0.369188 0.314824 0.251752
739 1 0.335093 0.437712 0.235972
1145 1 0.297399 0.257748 0.0838249
1183 1 0.356851 0.382798 0.355612
1886 1 0.213415 0.29511 0.0993304
719 1 0.245164 0.22875 0.132349
704 1 0.309969 0.556948 0.0954984
1170 1 0.0778183 0.415096 0.303619
1820 1 0.163964 0.29738 0.209334
1636 1 0.370012 0.377798 0.284876
951 1 0.114736 0.496876 0.181642
1983 1 0.266725 0.499316 0.238319
1518 1 0.261553 0.677392 0.109403
1958 1 0.143325 0.454893 0.327814
1693 1 0.299095 0.67065 0.425834
558 1 0.341868 0.477014 0.360728
1336 1 0.399084 0.474806 0.145914
1034 1 0.0774868 0.519631 0.117118
142 1 0.0685228 0.62132 0.126671
230 1 0.256947 0.742293 0.370021
787 1 0.407474 0.617716 0.379379
917 1 0.0832248 0.219566 0.492578
1487 1 0.0750539 0.566294 0.173406
617 1 0.462082 0.659697 0.1001
1359 1 0.330099 0.776964 0.30842
1571 1 0.469388 0.927455 0.0887248
1758 1 0.296352 0.349225 0.45959
435 1 0.438774 0.732062 0.412903
1115 1 0.284028 0.661874 0.31526
729 1 0.22453 0.638993 0.158942
1707 1 0.151955 0.877963 0.257693
377 1 0.315255 0.669197 0.230122
1591 1 0.101017 0.590398 0.0685639
1455 1 0.144973 0.616911 0.157152
1602 1 0.385591 0.802482 0.431685
1287 1 0.128024 0.695001 0.30402
857 1 0.446487 0.0531159 0.462548
527 1 0.0897488 0.85737 0.371941
1366 1 0.160151 0.00227117 0.286255
1259 1 0.398523 0.901056 0.118472
1696 1 0.172803 0.0187362 0.168376
34 1 0.350957 0.956156 0.145183
1631 1 0.442786 0.906348 0.338353
859 1 0.239211 0.457215 0.118458
1279 1 0.0760845 0.0909718 0.319138
1632 1 0.230866 0.951665 0.236504
1828 1 0.294205 0.161974 0.240676
1005 1 0.195401 0.958941 0.390441
721 1 0.050296 0.225685 0.308344
2039 1 0.413381 0.000323302 0.284828
2033 1 0.349669 0.637371 0.342025
362 1 0.404258 0.178309 0.181163
586 1 0.135206 0.735118 0.100317
1288 1 0.317124 0.883703 0.457331
92 1 0.176051 0.192688 0.24317
983 1 0.356277 0.20405 0.396468
116 1 0.0238099 0.993635 0.260115
1477 1 0.307781 0.280576 0.298326
189 1 0.196069 0.394097 0.106109
288 1 0.230733 0.331332 0.415917
252 1 0.33932 0.245306 0.144031
656 1 0.301147 0.320866 0.13023
744 1 0.479114 0.540011 0.411376
1054 1 0.142422 0.278194 0.114901
1701 1 0.197021 0.878539 0.0117011
1116 1 0.100031 0.277474 0.338973
316 1 0.34553 0.628714 0.480917
1461 1 0.227968 0.271804 0.190984
1594 1 0.28174 0.364318 0.256986
543 1 0.148031 0.571776 0.298166
356 1 0.148142 0.509597 0.262228
953 1 0.190426 0.281953 0.483221
1663 1 0.0617406 0.630223 0.270163
556 1 0.300784 0.489862 0.156736
1517 1 0.0594919 0.513633 0.038635
342 1 0.303144 0.620468 0.156416
1250 1 0.297038 0.56613 0.331293
607 1 0.429522 0.101845 0.0599253
1309 1 0.272144 0.283204 0.49505
1716 1 0.204486 0.677875 0.329108
1114 1 0.1456 0.917313 0.422035
1854 1 0.108702 0.520114 0.32798
1735 1 0.15123 0.631512 0.24394
260 1 0.00700866 0.946467 0.393938
998 1 0.0432922 0.806971 0.336284
1683 1 0.18494 0.721233 0.229284
1411 1 0.0620161 0.702963 0.483731
1642 1 0.387107 0.241322 0.326328
443 1 0.252001 0.608425 0.0921982
880 1 0.462645 0.785927 0.03089
1150 1 0.380556 0.50347 0.478778
1057 1 0.418488 0.575345 0.052567
772 1 0.296319 0.922416 0.247432
871 1 0.0561608 0.286727 0.443509
2019 1 0.111331 0.814832 0.270623
1985 1 0.172658 0.890841 0.336395
820 1 0.408789 0.249701 0.120137
904 1 0.329084 0.00432484 0.40021
1341 1 0.0912688 0.149141 0.48729
1441 1 0.0336314 0.810057 0.496424
76 1 0.247413 0.114528 0.341115
869 1 0.442538 0.0264684 0.346929
2041 1 0.273756 0.38664 0.0980521
1011 1 0.0404823 0.18691 0.239749
1118 1 0.108539 0.172187 0.272896
495 1 0.119835 0.167252 0.188997
792 1 0.14986 0.216428 0.459834
1240 1 0.448093 0.75961 0.216959
1800 1 0.0184607 0.151954 0.30589
1852 1 0.330116 0.190032 0.324109
1351 1 0.426691 0.32607 0.328914
1856 1 0.40717 0.167077 0.328634
1167 1 0.317083 0.281653 0.415362
1964 1 0.293579 0.417835 0.30589
1335 1 0.161291 0.315873 0.302251
61 1 0.475158 0.249762 0.354328
1627 1 0.375562 0.458631 0.294711
87 1 0.378401 0.466907 0.0550254
1948 1 0.197128 0.393477 0.453428
1523 1 0.168085 0.27086 0.397145
1725 1 0.267143 0.762622 0.438984
1937 1 0.234746 0.346858 0.175172
1152 1 0.152675 0.34607 0.143906
268 1 0.101504 0.584236 0.413573
1100 1 0.238285 0.579141 0.407125
296 1 0.213943 0.373307 0.292415
257 1 0.403085 0.724641 0.103651
1825 1 0.0523932 0.540034 0.462045
364 1 0.340764 0.508984 0.238993
1396 1 0.468352 0.873484 0.404758
409 1 0.31698 0.616344 0.0546228
942 1 0.312879 0.313742 0.0278828
1127 1 0.0734151 0.652539 0.425489
521 1 0.269779 0.490007 0.341411
1637 1 0.0481797 0.663769 0.353201
74 1 0.0514503 0.820153 0.057872
25 1 0.0984243 0.572827 0.239338
761 1 0.112806 0.706178 0.378411
1673 1 0.394114 0.91489 0.209138
292 1 0.265443 0.881953 0.303917
65 1 0.23182 0.126865 0.243173
145 1 0.0272039 0.789938 0.41632
138 1 0.187745 0.726482 0.385779
325 1 0.168882 0.770547 0.317415
954 1 0.205743 0.795699 0.374825
1409 1 0.463796 0.53427 0.14608
641 1 0.0762516 0.16796 0.112284
800 1 0.308536 0.821412 0.406971
1211 1 0.0446209 0.0136663 0.419755
960 1 0.061144 0.578402 0.3507
2000 1 0.21055 0.0184841 0.350143
1452 1 0.402686 0.0549529 0.400549
1853 1 0.0666288 0.178967 0.00923818
600 1 0.0578898 0.0804556 0.487
379 1 0.351009 0.0650799 0.483098
1289 1 0.360672 0.790999 0.0844725
1124 1 0.127077 0.956534 0.349205
645 1 0.234362 0.311232 0.339471
1377 1 0.199793 0.0921239 0.397876
696 1 0.42551 0.483654 0.244943
2034 1 0.429121 0.820125 0.333165
1440 1 0.448748 0.477773 0.334995
1772 1 0.424662 0.711423 0.274637
1645 1 0.0597561 0.122177 0.168823
1771 1 0.328985 0.428175 0.12435
242 1 0.0767552 0.117408 0.243934
190 1 0.151382 0.343362 0.377578
1691 1 0.482718 0.480224 0.202315
1471 1 0.20993 0.525583 0.29959
245 1 0.239745 0.859825 0.0805796
1171 1 0.00143311 0.442644 0.220907
332 1 0.431705 0.418385 0.382829
70 1 0.362397 0.357265 0.0647278
315 1 0.187962 0.559384 0.22664
1814 1 0.0157865 0.874054 0.100365
716 1 0.406375 0.701162 0.346579
393 1 0.0119503 0.688135 0.415235
549 1 0.173906 0.647565 0.0917221
1384 1 0.160677 0.936484 0.0435945
1577 1 0.335957 0.598479 0.269394
786 1 0.195471 0.403879 0.363031
1342 1 0.122237 0.636696 0.477834
1559 1 0.166108 0.579961 0.453678
1669 1 0.229352 0.665022 0.417994
1424 1 0.413862 0.571156 0.452257
933 1 0.330929 0.439893 0.478079
1804 1 0.0636428 0.505173 0.385182
895 1 0.0144636 0.796306 0.133015
1737 1 0.0402251 0.938654 0.217173
1467 1 0.324627 0.713146 0.373859
952 1 0.250221 0.566552 0.0182985
1422 1 0.263002 0.608518 0.471652
1807 1 0.339878 0.974379 0.0485948
1473 1 0.416554 0.323071 0.108359
1575 1 0.0304974 0.504965 0.176835
941 1 0.184145 0.531443 0.0366078
1481 1 0.0561953 0.883827 0.284645
736 1 0.250654 0.874823 0.37595
1192 1 0.409499 0.667664 0.443076
85 1 0.388234 0.967596 0.354625
1973 1 0.137166 0.802525 0.395921
759 1 0.353904 0.0414776 0.342304
509 1 0.013105 0.443711 0.109893
1007 1 0.484436 0.615561 0.420924
777 1 0.475193 0.691654 0.472709
994 1 0.325138 0.898756 0.381833
584 1 0.0560932 0.945911 0.0905466
1660 1 0.00625268 0.884841 0.351655
1182 1 0.294057 0.0765731 0.262343
1916 1 0.266378 0.535274 0.474745
131 1 0.323903 0.104512 0.326293
1260 1 0.435983 0.831623 0.230186
1972 1 0.152981 0.139331 0.448354
1952 1 0.13235 0.106765 0.362099
984 1 0.441686 0.78603 0.119572
445 1 0.24247 0.224393 0.309553
253 1 0.216511 0.451786 0.295474
232 1 0.407467 0.626149 0.286238
1371 1 0.278742 0.420141 0.375286
1665 1 0.0531003 0.229538 0.179731
881 1 0.240456 0.187578 0.193325
1658 1 0.290326 0.492337 0.41843
9 1 0.468434 0.428109 0.153015
1734 1 0.0718384 0.0509223 0.189512
510 1 0.0864866 0.433334 0.373517
1360 1 0.41205 0.0876702 0.297984
1326 1 0.0502216 0.669333 0.0746089
1938 1 0.193478 0.520508 0.399954
1450 1 0.0376625 0.519765 0.30996
1892 1 0.322258 0.581574 0.427598
1492 1 0.190013 0.165199 0.316947
812 1 0.455368 0.945361 0.265591
1019 1 0.385755 0.652613 0.0629184
918 1 0.088597 0.992668 0.479945
1865 1 0.0658591 0.0644389 0.0353934
1579 1 0.0418984 0.987815 0.160004
1380 1 0.186313 0.857333 0.406672
594 1 0.399405 0.410771 0.202669
1508 1 0.473427 0.796322 0.39296
1953 1 0.246338 0.205041 0.0645814
1332 1 0.209773 0.599501 0.338421
1370 1 0.156471 0.643818 0.390317
681 1 0.123424 0.855639 0.0383347
417 1 0.415811 0.0525116 0.110698
567 1 0.0520245 0.736653 0.368923
249 1 0.104212 0.172269 0.34612
1018 1 0.0773557 0.940386 0.431918
451 1 0.00315477 0.82573 0.19632
1689 1 0.193616 0.782189 0.450669
1379 1 0.161276 0.829269 0.190992
275 1 0.0559421 0.869353 0.448506
1394 1 0.0155891 0.614602 0.411968
893 1 0.467196 0.478107 0.0664953
2010 1 0.390691 0.910345 0.439806
1354 1 0.455375 0.244254 0.187681
167 1 0.137701 0.0642123 0.454457
563 1 0.436413 0.0368303 0.00731195
938 1 0.408847 0.760424 0.484933
95 1 0.0321162 0.372058 0.251622
224 1 0.0605346 0.200602 0.407766
1762 1 0.0631562 0.845999 0.145943
1123 1 0.463137 0.627892 0.0131175
2020 1 0.457389 0.930221 0.482172
448 1 0.0719844 0.405991 0.477931
1144 1 0.0115857 0.393441 0.167275
1346 1 0.181576 0.445358 0.0533997
158 1 0.223613 0.459629 0.432929
2005 1 0.355944 0.131775 0.406661
265 1 0.00333201 0.43103 0.302579
902 1 0.290386 0.135808 0.47897
172 1 0.483362 0.864273 0.296481
1210 1 0.161636 0.237488 0.330901
1105 1 0.471344 0.0921576 0.386668
1041 1 0.457578 0.985859 0.432931
1702 1 0.381596 0.151751 0.471398
519 1 0.285984 0.975939 0.187835
1239 1 0.390679 0.552467 0.354188
49 1 0.148282 0.706001 0.468258
1821 1 0.102682 0.237573 0.043142
818 1 0.394445 0.0141688 0.168907
587 1 0.148783 0.459655 0.408077
1454 1 0.292655 0.92506 0.00293541
237 1 0.135371 0.153964 0.0313004
981 1 0.00215713 0.495163 0.4356
613 1 0.391959 0.915948 0.0229637
1148 1 0.00856728 0.262701 0.245922
1710 1 0.439664 0.445252 0.0070951
214 1 0.0235589 0.434125 0.0360491
1675 1 0.292683 0.954081 0.488579
1397 1 0.306382 0.0260114 0.00632406
1480 1 0.491507 0.974263 0.373021
1185 1 0.00104743 0.307436 0.184612
1880 1 0.49535 0.563346 0.0444633
371 1 0.499415 0.734949 0.266614
1008 1 0.500007 0.858871 0.0697324
496 1 0.0566548 0.197212 0.696672
383 1 0.054301 0.75398 0.942025
1898 1 0.223557 0.0749717 0.641905
82 1 0.00908153 0.940038 0.871483
156 1 0.0698747 0.63235 0.910834
1797 1 0.269883 0.985165 0.584469
1024 1 0.0589552 0.829518 0.805865
1535 1 0.0480499 0.582969 0.846515
328 1 0.0238006 0.152109 0.519344
1554 1 0.445818 0.148614 0.996954
400 1 0.200558 0.0787285 0.815112
132 1 0.00522356 0.355833 0.551627
1838 1 0.430542 0.169147 0.522593
657 1 0.0745764 0.630367 0.565523
193 1 0.378573 0.310205 0.500428
1491 1 0.209492 0.202549 0.980288
1158 1 0.0390865 0.872521 0.937851
450 1 0.357633 0.379433 0.527916
483 1 0.480927 0.849348 0.99882
1082 1 0.412122 0.581337 0.76979
1194 1 0.0319945 0.769785 0.865309
988 1 0.477087 0.13445 0.795625
608 1 0.465697 0.302128 0.637507
868 1 0.388231 0.928566 0.902292
310 1 0.49723 0.99521 0.617276
890 1 0.395832 0.567846 0.537589
102 1 0.46243 0.45562 0.87687
227 1 0.382778 0.0517248 0.889621
1103 1 0.0186812 0.756389 0.792901
1634 1 0.408024 0.778795 0.941904
692 1 0.166985 0.732482 0.827244
117 1 0.129541 0.228308 0.975376
1862 1 0.209107 0.933531 0.776821
1957 1 0.474541 0.607536 0.885861
553 1 0.390361 0.0839564 0.962126
611 1 0.163046 0.599147 0.573377
1499 1 0.488935 0.0875749 0.980338
1664 1 0.414832 0.279612 0.752629
1435 1 0.199857 0.855722 0.635725
1740 1 0.0269116 0.263361 0.524706
562 1 0.0114547 0.789106 0.624882
311 1 0.205038 0.587069 0.51631
1700 1 0.121113 0.042829 0.815395
208 1 0.174201 0.00922481 0.996399
71 1 0.474997 0.543439 0.76739
1311 1 0.15734 0.801749 0.816926
873 1 0.0360359 0.203444 0.845382
979 1 0.0201777 0.250555 0.648823
899 1 0.176548 0.572014 0.851468
1857 1 0.0307823 0.327145 0.964048
1395 1 0.06645 0.536607 0.966492
1070 1 0.428674 0.931526 0.629442
1657 1 0.0854 0.0405551 0.900066
1292 1 0.0430942 0.303551 0.794323
1527 1 0.373154 0.773221 0.589469
815 1 0.245905 0.0478064 0.544716
1552 1 0.27789 0.0507809 0.719407
124 1 0.141712 0.988814 0.577328
1106 1 0.301015 0.098755 0.6669
1990 1 0.141816 0.804256 0.589306
2004 1 0.395323 -0.00023429 0.708403
88 1 0.48954 0.843095 0.85806
612 1 0.329652 0.136494 0.604992
1925 1 0.287811 0.345548 0.551819
467 1 0.269867 0.296263 0.806056
191 1 0.20645 0.971107 0.545255
755 1 0.447036 0.395631 0.536371
891 1 0.109096 0.353453 0.626303
867 1 0.471315 0.761609 0.717514
1763 1 0.144855 0.525273 0.579515
912 1 0.0675039 0.378665 0.844271
632 1 0.471683 0.775239 0.643685
1101 1 0.461746 0.87881 0.57969
1940 1 0.211792 0.850734 0.881534
427 1 0.135853 0.689043 0.753303
80 1 0.367228 0.416898 0.988904
603 1 0.230821 0.515558 0.547991
231 1 0.232036 0.509957 0.733924
1266 1 0.147618 0.522164 0.675023
635 1 0.295805 0.0404209 0.621695
1104 1 0.322728 0.597715 0.541985
1169 1 0.236117 0.398609 0.59037
1390 1 0.249288 0.590791 0.76602
273 1 0.308321 0.739554 0.622917
1296 1 0.0842026 0.496764 0.715301
1729 1 0.389732 0.560852 0.692471
1212 1 0.104663 0.671924 0.619837
468 1 0.359987 0.662707 0.570512
1071 1 0.423395 0.934047 0.553265
1572 1 0.437202 0.209121 0.949296
623 1 0.0883802 0.976505 0.856377
1324 1 0.377117 0.635723 0.700657
144 1 0.176057 0.0582905 0.574703
429 1 0.370835 0.0982735 0.833919
62 1 0.259411 0.891254 0.718445
195 1 0.282693 0.823989 0.733874
997 1 0.190928 0.000898983 0.629457
1558 1 0.213035 0.110709 0.502632
1463 1 0.475592 0.871406 0.695436
219 1 0.14664 0.121248 0.61159
542 1 0.194421 0.918727 0.694567
1942 1 0.386978 0.985052 0.986429
472 1 0.277204 0.0889684 0.859655
839 1 0.11665 0.887082 0.599097
1433 1 0.430046 0.148928 0.850419
13 1 0.201141 0.573218 0.948375
683 1 0.44247 0.821447 0.753447
1956 1 0.0962998 0.0385496 0.555542
1006 1 0.453368 0.937768 0.949506
177 1 0.0277706 0.18369 0.614088
616 1 0.0697368 0.0238943 0.626904
693 1 0.293732 0.873323 0.653832
301 1 0.223499 0.221173 0.638545
1376 1 0.393666 0.156702 0.670371
394 1 0.330544 0.0159373 0.683739
625 1 0.380599 0.289771 0.690526
280 1 0.403241 0.469796 0.939256
365 1 0.0693688 0.236092 0.576281
1993 1 0.410066 0.245619 0.520417
466 1 0.292529 0.19883 0.59812
83 1 0.463955 0.0733306 0.635763
1026 1 0.265858 0.168103 0.539554
970 1 0.477753 0.419995 0.670343
1328 1 0.43319 0.252162 0.591196
1522 1 0.464737 0.483168 0.705741
133 1 0.440476 0.358143 0.900705
557 1 0.260862 0.538508 0.608711
107 1 0.0232866 0.0200446 0.516995
1882 1 0.126198 0.581102 0.924168
1864 1 0.215705 0.556942 0.677499
1174 1 0.304614 0.679977 0.719991
1091 1 0.33306 0.889149 0.932713
354 1 0.302041 0.416776 0.633751
1767 1 0.464329 0.617073 0.813134
1220 1 0.108511 0.565407 0.521221
505 1 0.326621 0.598911 0.655813
1780 1 0.255914 0.691357 0.666043
540 1 0.410072 0.727171 0.637353
528 1 0.408913 0.633964 0.859978
1431 1 0.0856627 0.121724 0.861642
241 1 0.411619 0.784878 0.688234
977 1 0.292437 0.894583 0.583936
123 1 0.342257 0.773789 0.85454
814 1 0.403966 0.891201 0.706478
1514 1 0.414447 0.853988 0.628434
1202 1 0.0872915 0.824824 0.912896
554 1 0.211803 0.905967 0.575032
1784 1 0.350403 0.678703 0.640117
876 1 0.342505 0.986072 0.781256
1542 1 0.0839505 0.683173 0.963999
1872 1 0.475267 0.72971 0.900933
1073 1 0.257927 0.113289 0.586645
643 1 0.497496 0.308397 0.90553
706 1 0.364121 0.987155 0.623508
1358 1 0.393273 0.767599 0.793996
103 1 0.14936 0.861755 0.695579
1721 1 0.0725633 0.0948689 0.632426
1732 1 0.416708 0.264855 0.824967
1613 1 0.124172 0.982885 0.672593
104 1 0.157313 0.14323 0.946645
309 1 0.418665 0.229678 0.661111
875 1 0.465579 0.560686 0.50435
1159 1 0.482715 0.705098 0.634431
583 1 0.1039 0.166445 0.745021
1537 1 0.326349 0.206285 0.688358
1314 1 0.174205 0.104938 0.884664
1146 1 0.159199 0.245992 0.712096
1137 1 0.423486 0.284843 0.95247
1320 1 0.00753035 0.537187 0.909299
210 1 0.0240328 0.607488 0.97793
516 1 0.0599649 0.575044 0.615067
1742 1 0.10775 0.297052 0.538643
111 1 0.480027 0.29249 0.794151
1363 1 0.118802 0.832059 0.527476
1903 1 0.00053456 0.512433 0.603676
16 1 0.0272532 0.0871228 0.82877
169 1 0.382453 0.498855 0.753339
852 1 0.447857 0.0752895 0.536901
1113 1 0.390395 0.723074 0.734043
1047 1 0.234807 0.276568 0.567109
950 1 0.217378 0.347528 0.815067
1162 1 0.145433 0.369186 0.510424
1023 1 0.379923 0.44103 0.622183
1214 1 0.375407 0.112822 0.534998
559 1 0.452826 0.13802 0.921949
263 1 0.0103754 0.307633 0.71953
1566 1 0.461693 0.146102 0.709506
401 1 0.0149169 0.631987 0.643191
1597 1 0.1928 0.50169 0.809343
1896 1 0.341036 0.552425 0.803995
15 1 0.337943 0.614016 0.762273
817 1 0.248842 0.692684 0.592358
532 1 0.14604 0.786999 0.741351
924 1 0.428851 0.733551 0.560199
824 1 0.14825 0.8907 0.915957
1271 1 0.156977 0.785775 0.669511
1528 1 0.241876 0.073648 0.983957
1902 1 0.172364 0.710371 0.66679
504 1 0.243001 0.823984 0.984891
1905 1 0.049427 0.961486 0.663222
1826 1 0.265715 0.0534844 0.792416
1709 1 0.158093 0.827846 0.964117
1783 1 0.281116 0.888611 0.793196
164 1 0.0763922 0.90331 0.884109
184 1 0.392725 0.496499 0.5548
717 1 0.245054 0.121865 0.710783
279 1 0.339309 0.158788 0.900231
661 1 0.27004 0.974217 0.764904
1835 1 0.361723 0.901764 0.619077
455 1 0.0989433 0.193966 0.627582
1927 1 0.428608 0.208059 0.739828
1910 1 0.0580388 0.229145 0.778874
1097 1 0.138329 0.153817 0.811311
470 1 0.260157 0.160019 0.869949
1415 1 0.103745 0.586986 0.711238
1355 1 0.315555 0.284786 0.864049
927 1 0.233895 0.283349 0.721761
832 1 0.40402 0.358762 0.763297
1907 1 0.221761 0.367517 0.520634
239 1 0.276616 0.41191 0.900224
1730 1 0.166825 0.328958 0.762226
18 1 0.350848 0.28497 0.793751
841 1 0.48025 0.755501 0.508932
498 1 0.146213 0.407583 0.594242
2021 1 0.229692 0.749933 0.542196
1251 1 0.328766 0.433298 0.760809
157 1 0.0370697 0.654064 0.746505
1039 1 0.38086 0.081185 0.674595
38 1 0.313981 0.473492 0.696599
948 1 0.113878 0.591556 0.821015
767 1 0.0197531 0.843022 0.875908
1110 1 0.25351 0.447051 0.771236
1216 1 0.354386 0.519758 0.89677
801 1 0.168569 0.47159 0.623197
1590 1 0.16952 0.550974 0.755597
782 1 0.16634 0.7968 0.89386
1095 1 0.348211 0.791636 0.993469
1200 1 0.0717144 0.547625 0.765401
1378 1 0.172235 0.616678 0.713728
1419 1 0.341412 0.695077 0.819866
126 1 0.489467 0.237722 0.711064
1226 1 0.482906 0.497524 0.938
1679 1 0.214122 0.620749 0.635795
1385 1 0.299131 0.262722 0.74652
1787 1 0.0776769 0.966077 0.565282
1438 1 0.418593 0.809731 0.853391
579 1 0.454874 0.688864 0.842839
2002 1 0.050779 0.85248 0.601004
1939 1 0.100449 0.284484 0.73611
682 1 0.323626 0.94008 0.68543
1237 1 0.0991877 0.258495 0.65824
1868 1 0.162382 0.934084 0.631132
1614 1 0.422137 0.323709 0.559016
762 1 0.21939 0.986266 0.6963
420 1 0.424603 0.983302 0.777612
162 1 0.18477 0.0704696 0.719291
1327 1 0.193692 0.181757 0.891829
480 1 0.34735 0.0662155 0.759926
1960 1 0.0911253 0.177048 0.938777
1888 1 0.427748 0.0844345 0.741882
705 1 0.187062 0.336552 0.625751
614 1 0.322045 0.146924 0.737049
874 1 0.268925 0.138176 0.797308
416 1 0.429895 0.846976 0.917705
36 1 0.174581 0.937742 0.963499
1469 1 0.085043 0.274437 0.847868
1672 1 0.259428 0.192613 0.714737
1140 1 0.322031 0.346795 0.680546
1485 1 0.322901 0.97321 0.914867
264 1 0.144761 0.33494 0.685518
747 1 0.25429 0.154548 0.64622
1536 1 0.138125 0.40755 0.801575
595 1 0.190506 0.400547 0.66615
20 1 0.369218 0.361657 0.60381
1750 1 0.424587 0.425696 0.729814
64 1 0.00478867 0.256843 0.902876
30 1 0.36214 0.405907 0.698798
512 1 0.197402 0.753898 0.614527
1646 1 0.209916 0.217528 0.831566
2009 1 0.261928 0.410761 0.697641
773 1 0.419328 0.535426 0.826592
1156 1 0.16055 0.450861 0.534335
1926 1 0.149735 0.468045 0.86017
931 1 0.312543 0.551291 0.719273
1981 1 0.357607 0.534315 0.621435
130 1 0.164287 0.480197 0.736934
250 1 0.331391 0.452019 0.927896
642 1 0.0534274 0.419324 0.663536
930 1 0.274096 0.610025 0.70383
1992 1 0.0227292 0.512724 0.818667
2006 1 0.126206 0.860096 0.849135
922 1 0.273143 0.639561 0.836893
1561 1 0.392031 0.657508 0.784246
1890 1 0.149422 0.442345 0.960334
2040 1 0.460252 0.554604 0.674367
1290 1 0.122593 0.846271 0.772966
1367 1 0.324988 0.658789 0.915167
240 1 0.380642 0.715695 0.97709
833 1 0.0512628 0.310746 0.583806
1649 1 0.0896893 0.763244 0.620426
844 1 0.0447266 0.45397 0.858449
1621 1 0.130733 0.59305 0.641843
127 1 0.0259217 0.568045 0.691017
1389 1 0.0592294 0.911455 0.813455
407 1 0.23558 0.760191 0.696481
1760 1 0.352459 0.917378 0.535885
793 1 0.327542 0.0345625 0.840213
919 1 0.0799263 0.95631 0.734613
1543 1 0.320844 0.779371 0.782987
1368 1 0.262273 0.620756 0.577541
1421 1 0.0812602 0.886339 0.678397
538 1 0.293395 0.396158 0.971024
949 1 0.361965 0.913452 0.774003
1603 1 0.14936 0.0617103 0.944403
1295 1 0.468364 0.423633 0.941286
1120 1 0.203976 0.00398676 0.796317
1329 1 0.464722 0.986977 0.696602
653 1 0.253295 0.235679 0.892342
340 1 0.46349 0.900984 0.778008
568 1 0.0841271 0.809808 0.987618
1549 1 0.292162 0.273985 0.676226
1256 1 0.47494 0.377182 0.784588
1401 1 0.178955 0.165731 0.673196
576 1 0.29525 0.197578 0.947611
31 1 0.0306833 0.874988 0.755521
14 1 0.31957 0.730634 0.914807
2037 1 0.474659 0.199077 0.615951
266 1 0.201369 0.400062 0.75225
805 1 0.0643756 0.459959 0.987113
1815 1 0.0819176 0.492749 0.560392
375 1 0.0734299 0.331451 0.689915
147 1 0.301812 0.342332 0.906516
52 1 0.246461 0.342737 0.675653
1017 1 0.00679099 0.395919 0.936649
720 1 0.292123 0.679533 0.531671
1030 1 0.207392 0.42848 0.836598
291 1 0.155646 0.770825 0.513376
1510 1 0.179892 0.648824 0.791497
1217 1 0.433367 0.5992 0.94623
551 1 0.320989 0.074818 0.557911
766 1 0.253745 0.699239 0.781923
1087 1 0.338398 0.593521 0.880165
1343 1 0.0817369 0.529871 0.896973
1286 1 0.250279 0.713059 0.854621
1722 1 0.476408 0.332301 0.717551
1016 1 0.440438 0.540038 0.895764
1616 1 0.266168 0.815951 0.812013
1718 1 0.262335 0.455383 0.511482
1595 1 0.372023 0.822901 0.738158
1824 1 0.429858 0.883759 0.847591
1125 1 0.384902 0.604659 0.609393
541 1 0.193679 0.848851 0.765112
148 1 0.136787 0.916013 0.798504
1318 1 0.389646 0.718115 0.879365
678 1 0.035067 0.748195 0.724522
137 1 0.30028 0.218946 0.833704
1055 1 0.106203 0.0858578 0.760827
1392 1 0.406356 0.986894 0.857344
276 1 0.0259475 0.0133101 0.869516
277 1 0.328344 0.941389 0.841076
1974 1 0.00543012 0.583844 0.781234
1081 1 0.448053 0.474645 0.606771
722 1 0.146949 0.278544 0.896923
255 1 0.130578 0.0980924 0.52235
646 1 0.352183 0.718588 0.523736
183 1 0.343313 0.819301 0.652303
349 1 0.217207 0.352396 0.890226
987 1 0.439801 0.54835 0.60178
44 1 0.42541 0.0478915 0.822788
659 1 0.110642 0.751015 0.863499
331 1 0.447595 0.628773 0.531663
708 1 0.497772 0.55576 0.834336
1580 1 0.395211 0.14882 0.78122
1633 1 0.0764203 0.681093 0.817693
1122 1 0.203133 0.299636 0.945852
1670 1 0.459523 0.997603 0.548204
1153 1 0.00717688 0.998275 0.711368
1488 1 0.303959 0.296152 0.608927
1175 1 0.414686 0.349743 0.668813