ITEM: TIMESTEP
100000
ITEM: NUMBER OF ATOMS
2048
ITEM: BOX BOUNDS pp pp pp
0.0000000000000000e+00 1.2699208415745595e+01
0.0000000000000000e+00 1.2699208415745595e+01
0.0000000000000000e+00 1.2699208415745595e+01
ITEM: ATOMS id type xs ys zs
634 1 0.0709378 0.00274763 0.0282192
1049 1 0.249494 0.0254072 0.0358825
1834 1 0.531921 0.012441 0.0225213
1844 1 0.848596 0.0313561 0.0344688
50 1 0.990626 0.00418955 0.0486189
365 1 0.0263461 0.058014 0.00489207
206 1 0.162753 0.098155 0.0346289
665 1 0.242683 0.110672 0.00837556
679 1 0.308764 0.0621792 0.00579114
915 1 0.422595 0.0981017 0.0482954
394 1 0.494762 0.0769864 0.0486182
1056 1 0.639589 0.0824724 0.0134525
1635 1 0.776648 0.0599946 0.00681557
1675 1 0.910366 0.0797398 0.0423073
943 1 0.013534 0.129935 0.0482814
1626 1 0.31542 0.141248 0.045482
94 1 0.684813 0.165434 0.00931961
82 1 0.768091 0.141029 0.0177507
1085 1 0.843112 0.131456 0.0206863
521 1 0.145885 0.171726 0.0410718
1556 1 0.400166 0.182667 0.0457586
1561 1 0.530671 0.17628 0.0461692
1270 1 0.606992 0.184665 0.0260077
420 1 0.872638 0.204291 0.0269521
325 1 0.964593 0.215052 0.0267143
248 1 0.109669 0.236045 0.0122802
1230 1 0.189317 0.235527 0.0166597
398 1 0.307293 0.263591 0.0501119
816 1 0.404429 0.253891 0.0138875
644 1 0.505503 0.260053 0.0418238
1930 1 0.668189 0.228039 0.0467472
93 1 0.769289 0.247015 0.0513206
1110 1 0.906476 0.26221 0.05368
2019 1 0.0321652 0.290004 0.00748328
1142 1 0.154807 0.302819 0.0118311
803 1 0.250189 0.304386 0.0237674
1980 1 0.441888 0.315537 0.0281391
23 1 0.587612 0.312567 0.0277804
397 1 0.669127 0.302828 0.0266597
373 1 0.75981 0.313014 0.0203604
751 1 0.964585 0.310702 0.0295871
614 1 0.13401 0.378467 0.0291463
1206 1 0.204863 0.371428 0.00349441
324 1 0.299587 0.367598 0.0226504
1214 1 0.407091 0.382082 0.010378
205 1 0.511331 0.335062 0.00717879
1724 1 0.668106 0.374318 0.00423567
448 1 0.834558 0.346165 0.0450144
232 1 0.971594 0.38813 0.0172416
393 1 0.473238 0.425459 0.0361838
1973 1 0.537394 0.403542 0.00609417
441 1 0.643526 0.443921 0.0469934
1570 1 0.718631 0.437928 0.0271043
1188 1 0.0118246 0.476295 0.0169026
765 1 0.215709 0.481198 0.0143193
1374 1 0.290314 0.49173 0.036652
3 1 0.376079 0.450326 0.0480837
2031 1 0.436508 0.488038 0.00364667
1427 1 0.819531 0.449584 0.0270789
9 1 0.0899061 0.00207708 0.108825
270 1 0.149971 0.034478 0.0784616
1438 1 0.328849 0.00162546 0.0618313
390 1 0.389311 0.0195835 0.107205
967 1 0.45895 0.00377801 0.0612069
1000 1 0.537576 0.0336088 0.0963711
1926 1 0.607481 0.00622862 0.0563698
493 1 0.636738 0.0471001 0.109216
1813 1 0.699339 0.0072486 0.0921367
839 1 0.77609 0.0247982 0.072362
1600 1 0.0898006 0.0809491 0.0604824
1603 1 0.272217 0.0837951 0.086237
1830 1 0.34538 0.0822406 0.0798958
1320 1 0.573375 0.103887 0.0555708
41 1 0.716115 0.0863119 0.0752325
1507 1 0.824568 0.100787 0.0856647
1493 1 0.960714 0.0819663 0.0977622
818 1 0.0865728 0.153836 0.0884754
467 1 0.21599 0.131885 0.0866841
738 1 0.453225 0.147217 0.0972238
652 1 0.573348 0.165621 0.107534
1202 1 0.649011 0.130664 0.0768865
1397 1 0.921617 0.156423 0.0593058
1892 1 0.0487515 0.215608 0.0617155
1967 1 0.266939 0.192331 0.0713389
2015 1 0.339236 0.200048 0.0892235
150 1 0.721496 0.194904 0.0898012
314 1 0.793576 0.168897 0.0805538
1126 1 0.875888 0.196952 0.101434
343 1 0.131718 0.241352 0.0934329
1550 1 0.259553 0.257566 0.109623
1412 1 0.440886 0.239541 0.0786968
412 1 0.579746 0.250772 0.0735795
1518 1 0.689233 0.275962 0.10331
1383 1 0.831379 0.271392 0.0767132
1920 1 0.0155427 0.305225 0.0868196
2 1 0.0956386 0.303242 0.0745935
1272 1 0.194123 0.28979 0.0915498
1757 1 0.291041 0.326519 0.0994177
994 1 0.369822 0.297578 0.0670583
1062 1 0.488553 0.297868 0.102901
1346 1 0.621901 0.313522 0.0993667
833 1 0.942537 0.326173 0.110314
1454 1 0.0550754 0.369289 0.0585593
791 1 0.229299 0.373851 0.0948818
247 1 0.349408 0.380882 0.0706883
2016 1 0.421764 0.365649 0.104447
887 1 0.584055 0.379237 0.06928
1492 1 0.690887 0.368897 0.0722956
692 1 0.00574343 0.40294 0.109089
548 1 0.165656 0.426076 0.0899676
1594 1 0.28798 0.424688 0.0831676
1059 1 0.767324 0.419065 0.0820606
221 1 0.854049 0.411666 0.0818637
151 1 0.925313 0.437876 0.0882793
1798 1 0.064174 0.44939 0.0630909
1574 1 0.128534 0.494122 0.0568448
1925 1 0.47453 0.465345 0.0993874
163 1 0.552557 0.46322 0.0605974
1460 1 0.706489 0.489946 0.0948007
1669 1 0.871918 0.49001 0.0775427
374 1 0.313406 0.0181308 0.138609
169 1 0.465732 0.0368879 0.133319
1974 1 0.896864 0.0410811 0.160828
603 1 0.966675 0.00831842 0.134053
1283 1 0.0403714 0.0617756 0.117899
1448 1 0.132175 0.0752509 0.139937
1086 1 0.215619 0.0747055 0.133123
1747 1 0.411155 0.0932138 0.130193
785 1 0.664763 0.104732 0.158868
1337 1 0.764363 0.0711576 0.135998
896 1 0.000585839 0.164281 0.120009
1024 1 0.173604 0.157682 0.161161
759 1 0.245928 0.164772 0.145111
1611 1 0.369607 0.149588 0.153841
801 1 0.502404 0.113849 0.144074
581 1 0.7294 0.145615 0.157617
807 1 0.804348 0.143408 0.155542
1327 1 0.893206 0.124063 0.131096
1817 1 0.0992663 0.178517 0.158793
1047 1 0.067882 0.253491 0.133098
646 1 0.191337 0.22947 0.151565
1139 1 0.329366 0.270844 0.135584
736 1 0.464255 0.246793 0.166191
18 1 0.554691 0.235874 0.150107
1015 1 0.63653 0.22794 0.125605
1285 1 0.801778 0.230648 0.14262
821 1 0.900767 0.262053 0.138443
1041 1 0.970372 0.253503 0.115498
1443 1 0.408647 0.301049 0.151596
1918 1 0.547297 0.31167 0.166016
371 1 0.757522 0.299218 0.144071
1248 1 0.0689997 0.353309 0.137367
868 1 0.149594 0.360606 0.131773
617 1 0.338367 0.358229 0.149794
2021 1 0.508734 0.373523 0.112937
815 1 0.685748 0.347503 0.141479
770 1 0.788458 0.36893 0.133423
769 1 0.857886 0.338861 0.121901
549 1 0.0720934 0.441486 0.140346
1959 1 0.365545 0.435061 0.120042
1536 1 0.62005 0.391734 0.135933
1997 1 0.690691 0.423557 0.130664
1943 1 0.925253 0.391444 0.147319
97 1 0.220332 0.458779 0.127772
1678 1 0.29355 0.483969 0.140142
1123 1 0.419239 0.491966 0.149322
661 1 0.615276 0.476072 0.116182
1398 1 0.752015 0.456464 0.157607
1449 1 0.833616 0.460168 0.138911
409 1 0.998258 0.490107 0.122049
1118 1 0.125542 0.0167632 0.193303
2012 1 0.196603 0.0450978 0.217684
1074 1 0.388607 0.0338255 0.176097
1503 1 0.573788 0.0531601 0.167083
924 1 0.634303 0.0175981 0.216674
1043 1 0.715167 0.0386631 0.196846
1440 1 0.0649858 0.0602143 0.204788
669 1 0.381482 0.102543 0.215232
960 1 0.83014 0.0693926 0.168499
131 1 0.983927 0.0670438 0.17527
802 1 0.0433774 0.121455 0.170544
1584 1 0.120926 0.115488 0.213064
408 1 0.230594 0.111598 0.197507
65 1 0.309143 0.112153 0.183966
174 1 0.437711 0.154532 0.190148
1479 1 0.591102 0.148847 0.176325
666 1 0.868687 0.118289 0.212698
1605 1 0.974267 0.144332 0.192183
1531 1 0.0283462 0.20594 0.184918
1489 1 0.138147 0.218104 0.213455
1783 1 0.522841 0.176643 0.186848
1467 1 0.659461 0.17166 0.208143
1552 1 0.816058 0.200002 0.215856
883 1 0.901304 0.18788 0.193072
1661 1 0.0739798 0.259428 0.210719
354 1 0.22145 0.274708 0.213214
111 1 0.269 0.228163 0.17721
1152 1 0.387946 0.224418 0.182448
735 1 0.517967 0.262912 0.214088
476 1 0.604913 0.224089 0.208395
383 1 0.710387 0.236544 0.171165
406 1 0.843466 0.276167 0.188683
1867 1 0.953021 0.247285 0.203252
1832 1 0.0106435 0.288871 0.170835
414 1 0.146532 0.292805 0.183315
1680 1 0.283354 0.319463 0.181755
88 1 0.363369 0.296304 0.221162
220 1 0.644136 0.280051 0.184242
1612 1 0.70726 0.320271 0.211605
689 1 0.893886 0.326991 0.20781
1218 1 0.171057 0.367641 0.207297
853 1 0.448772 0.364219 0.184645
1468 1 0.532693 0.385695 0.183518
1682 1 0.635469 0.347105 0.21563
405 1 0.792763 0.334901 0.205706
1991 1 0.991551 0.363866 0.172077
598 1 0.0544228 0.399283 0.200468
1054 1 0.145609 0.43407 0.176795
823 1 0.273813 0.406537 0.167402
1385 1 0.393074 0.415973 0.187442
724 1 0.481535 0.437839 0.17732
963 1 0.641428 0.420756 0.219497
1483 1 0.730683 0.390368 0.185958
1668 1 0.848948 0.393087 0.194201
1528 1 0.0632569 0.47687 0.217644
463 1 0.267559 0.470848 0.217482
434 1 0.352416 0.491024 0.181788
1496 1 0.579933 0.453198 0.18577
1095 1 0.66555 0.491498 0.179108
697 1 0.81386 0.469574 0.216833
495 1 0.904466 0.470357 0.167296
1863 1 0.981647 0.446249 0.192765
1779 1 0.285439 0.0499204 0.226331
999 1 0.384273 0.0047127 0.246317
1508 1 0.494665 0.00119734 0.274885
1905 1 0.559491 0.0200798 0.234948
1281 1 0.765148 5.71344e-05 0.240972
533 1 0.844153 0.0299988 0.261659
363 1 0.918299 0.0522979 0.247773
619 1 0.981695 0.00879015 0.245029
1378 1 0.0619586 0.106743 0.269475
523 1 0.129276 0.0567504 0.258821
595 1 0.1978 0.10105 0.271785
907 1 0.460036 0.0616891 0.224764
1954 1 0.543073 0.0921771 0.227074
435 1 0.673179 0.0872632 0.23221
240 1 0.792019 0.0857579 0.233384
1183 1 0.98844 0.0887721 0.249027
1568 1 0.280988 0.122512 0.253933
1722 1 0.490677 0.137681 0.272989
1763 1 0.607067 0.126685 0.258288
1644 1 0.834812 0.155464 0.277754
1854 1 0.929102 0.134102 0.256974
1748 1 0.00716776 0.172908 0.274184
543 1 0.0771448 0.199047 0.255337
1423 1 0.158008 0.172837 0.276524
1544 1 0.217989 0.176048 0.231068
1802 1 0.318194 0.179395 0.22955
2005 1 0.403216 0.188959 0.255899
46 1 0.479744 0.214722 0.259769
1629 1 0.551255 0.195025 0.259611
1077 1 0.735234 0.183957 0.223136
1242 1 0.00770932 0.246757 0.268336
197 1 0.28919 0.25968 0.252964
78 1 0.76184 0.267673 0.23296
1495 1 0.873937 0.222741 0.260063
298 1 0.00449602 0.328924 0.239234
535 1 0.159149 0.308336 0.26065
1048 1 0.234742 0.316564 0.274737
918 1 0.43592 0.282766 0.227092
1373 1 0.581373 0.300619 0.254065
2008 1 0.656537 0.292892 0.267833
1210 1 0.843654 0.293781 0.267631
1307 1 0.935701 0.293293 0.261126
1542 1 0.0943615 0.336119 0.232424
297 1 0.252521 0.384204 0.242311
1901 1 0.314748 0.336272 0.270036
589 1 0.403304 0.376537 0.257584
72 1 0.506545 0.337247 0.254572
1407 1 0.838809 0.371148 0.276615
16 1 0.947816 0.385546 0.243193
1044 1 0.0169686 0.433224 0.261874
202 1 0.0996793 0.43229 0.268186
1207 1 0.327427 0.402485 0.23292
341 1 0.462375 0.429228 0.25649
1078 1 0.536572 0.436258 0.247089
1836 1 0.766063 0.419821 0.259482
322 1 0.889438 0.436463 0.243287
1470 1 0.181963 0.445985 0.237021
913 1 0.451943 0.49818 0.226431
625 1 0.720402 0.498271 0.231411
366 1 0.0652373 0.0280173 0.280195
1632 1 0.231346 0.0284768 0.283728
64 1 0.429486 0.00989796 0.316
1970 1 0.970432 0.0204516 0.332486
1365 1 0.128958 0.10462 0.313915
560 1 0.26987 0.0853448 0.318147
998 1 0.340916 0.0584745 0.278053
2028 1 0.417817 0.0823284 0.280535
164 1 0.487222 0.068465 0.320877
1825 1 0.576921 0.0673339 0.294082
587 1 0.655551 0.0870132 0.303608
141 1 0.72581 0.061194 0.282782
1800 1 0.801649 0.0716345 0.313972
109 1 0.880118 0.0902249 0.299425
14 1 0.341236 0.141243 0.294431
1510 1 0.442128 0.142577 0.3293
681 1 0.672317 0.163315 0.285831
2003 1 0.749278 0.133986 0.301646
1614 1 0.0805841 0.168998 0.323839
929 1 0.257698 0.200559 0.289142
1884 1 0.347713 0.219549 0.306812
1785 1 0.929261 0.196663 0.307741
1868 1 0.105565 0.262065 0.290652
1465 1 0.197064 0.250207 0.289237
126 1 0.291393 0.270745 0.325245
1177 1 0.417295 0.250176 0.322576
888 1 0.521664 0.260283 0.310791
1240 1 0.609356 0.230548 0.293478
873 1 0.702638 0.234184 0.286736
1288 1 0.800623 0.229828 0.286248
1411 1 0.372126 0.317278 0.322454
1893 1 0.446598 0.313476 0.298548
1464 1 0.617155 0.314329 0.325775
384 1 0.775264 0.307786 0.318933
1265 1 0.983018 0.329265 0.313927
1138 1 0.0532697 0.368335 0.291888
828 1 0.134601 0.351773 0.317771
827 1 0.262472 0.368633 0.321307
1713 1 0.572834 0.368384 0.297145
919 1 0.645727 0.381796 0.283829
1353 1 0.720366 0.353797 0.280791
1121 1 0.906974 0.365754 0.316065
229 1 0.184671 0.408857 0.305167
490 1 0.348422 0.391544 0.308273
1719 1 0.442445 0.398649 0.328637
1458 1 0.520095 0.431652 0.330791
1429 1 0.776641 0.388937 0.330162
67 1 0.0703804 0.495218 0.307753
299 1 0.141361 0.460825 0.323671
1519 1 0.27174 0.465299 0.299804
1712 1 0.395732 0.453883 0.297833
1275 1 0.48361 0.499567 0.295657
1474 1 0.593826 0.446307 0.294544
281 1 0.673044 0.472769 0.289208
1341 1 0.822435 0.478138 0.320585
1749 1 0.949803 0.450041 0.292578
1245 1 0.180193 0.0409849 0.341176
1686 1 0.301305 0.048231 0.387518
1634 1 0.457649 0.0391599 0.383144
1761 1 0.537632 0.0100926 0.362432
1342 1 0.623547 0.00365495 0.368651
843 1 0.693331 0.0134649 0.337033
1637 1 0.764021 0.0187147 0.374848
235 1 0.0762772 0.0561476 0.35218
660 1 0.384246 0.0827289 0.347513
2042 1 0.56848 0.0780248 0.370546
824 1 0.740603 0.0981853 0.367655
1461 1 0.911873 0.0604764 0.368146
1224 1 0.992747 0.0915168 0.334511
1866 1 0.0352639 0.128115 0.387666
1577 1 0.219416 0.146204 0.34355
1450 1 0.503033 0.126187 0.387214
410 1 0.572661 0.149834 0.347979
1809 1 0.653781 0.118964 0.380155
1184 1 0.812958 0.121389 0.38769
140 1 0.889943 0.134632 0.35985
1389 1 0.00654727 0.206154 0.343857
515 1 0.0798858 0.214913 0.388822
473 1 0.157031 0.200513 0.342988
1012 1 0.289688 0.172811 0.350151
143 1 0.366378 0.170583 0.361174
1522 1 0.506791 0.188144 0.33396
287 1 0.628681 0.203615 0.375047
1963 1 0.705536 0.174583 0.358268
243 1 0.800001 0.185999 0.34714
786 1 0.881639 0.212395 0.358402
1382 1 0.150018 0.27438 0.351329
1597 1 0.232955 0.222833 0.361304
1784 1 0.574064 0.253051 0.362066
895 1 0.738701 0.24029 0.382445
841 1 0.953196 0.264223 0.342026
721 1 0.0452667 0.286731 0.346696
263 1 0.328072 0.303309 0.385047
1019 1 0.65312 0.280861 0.388587
570 1 0.704965 0.292319 0.336626
971 1 0.804585 0.277992 0.382133
568 1 0.87216 0.281457 0.335835
24 1 0.919113 0.317442 0.384691
494 1 0.0792487 0.349158 0.369719
1692 1 0.437984 0.333941 0.373179
683 1 0.511011 0.335218 0.340638
986 1 0.624503 0.366308 0.38498
1598 1 0.706587 0.379215 0.362692
1096 1 0.838317 0.348122 0.351449
1652 1 0.0667561 0.425706 0.345118
1581 1 0.130924 0.405639 0.380949
1299 1 0.226899 0.416833 0.373758
897 1 0.301584 0.421296 0.364628
185 1 0.377824 0.432291 0.368776
450 1 0.656245 0.440592 0.358616
1593 1 0.882091 0.429172 0.346434
338 1 0.988482 0.404682 0.346494
112 1 0.221024 0.49551 0.351235
1729 1 0.321507 0.492691 0.346566
989 1 0.466221 0.463095 0.37811
1021 1 0.735561 0.453936 0.353983
1395 1 0.882968 0.497475 0.385306
546 1 0.949976 0.469998 0.388867
1406 1 0.0458807 0.0255285 0.430306
149 1 0.128946 0.0242175 0.406719
48 1 0.220091 0.0377033 0.408055
481 1 0.386668 0.0270638 0.410983
395 1 0.51748 0.0538697 0.431356
1599 1 0.677815 0.0555442 0.414815
1115 1 0.833398 0.0338558 0.399762
375 1 0.894368 0.0424392 0.44379
2036 1 0.967816 0.0357961 0.427061
496 1 0.769949 0.0749015 0.433515
1842 1 0.128857 0.119617 0.391362
181 1 0.250172 0.112044 0.408003
931 1 0.328457 0.125101 0.408564
1347 1 0.410839 0.127801 0.406885
21 1 0.561451 0.119419 0.441837
734 1 0.88409 0.120115 0.436844
2027 1 0.955135 0.130528 0.404086
195 1 0.0080275 0.189504 0.42694
1878 1 0.198231 0.196943 0.431551
958 1 0.461625 0.194577 0.395268
43 1 0.549211 0.193862 0.412489
501 1 0.766111 0.177388 0.427792
1266 1 0.84557 0.186022 0.431898
8 1 0.937127 0.218807 0.418231
351 1 0.00248662 0.265626 0.407295
76 1 0.148041 0.255683 0.42515
1801 1 0.239192 0.266834 0.426438
558 1 0.298568 0.227184 0.402714
74 1 0.396016 0.245615 0.400416
1933 1 0.495214 0.264903 0.393976
656 1 0.601839 0.246523 0.432227
1573 1 0.676869 0.223359 0.430925
1695 1 0.877692 0.267792 0.436033
890 1 0.0791111 0.288501 0.424205
436 1 0.402004 0.305678 0.444411
4 1 0.556673 0.317636 0.402925
1700 1 0.737974 0.319901 0.405642
1575 1 0.197123 0.35446 0.411286
1706 1 0.35319 0.363827 0.422531
1473 1 0.524635 0.385978 0.399648
1995 1 0.775737 0.386387 0.417925
1432 1 0.838497 0.338795 0.431167
1662 1 0.999241 0.354147 0.40819
749 1 0.0360903 0.430187 0.429933
637 1 0.430239 0.391892 0.429213
1703 1 0.837692 0.430801 0.413249
1079 1 0.930327 0.400448 0.403228
66 1 0.0830595 0.483854 0.398473
1571 1 0.181907 0.457802 0.416156
1476 1 0.358734 0.475612 0.435071
1839 1 0.540335 0.467559 0.413864
1835 1 0.615377 0.454375 0.436239
459 1 0.770574 0.470639 0.435288
199 1 0.0945826 0.0244397 0.492764
795 1 0.287343 0.0546922 0.462169
307 1 0.426353 0.0388585 0.468902
1338 1 0.599059 0.0435376 0.453156
1161 1 0.0084772 0.102236 0.44771
772 1 0.140686 0.0815872 0.470658
291 1 0.217141 0.0727273 0.480734
881 1 0.370089 0.0914616 0.465457
1482 1 0.472557 0.0988637 0.469593
901 1 0.617274 0.103259 0.498088
59 1 0.839759 0.089598 0.495235
1357 1 0.0741736 0.158406 0.455994
1928 1 0.318616 0.142129 0.498075
752 1 0.390959 0.163317 0.471815
1215 1 0.630006 0.166641 0.456202
70 1 0.692967 0.128438 0.452489
1760 1 0.78412 0.158387 0.498281
904 1 0.950176 0.143317 0.482129
830 1 0.137341 0.197581 0.486473
1008 1 0.264088 0.182878 0.464826
1972 1 0.3367 0.218741 0.473113
1466 1 0.474527 0.171582 0.490413
80 1 0.716324 0.192691 0.486603
1291 1 0.00857297 0.241126 0.493884
1872 1 0.181448 0.2601 0.495574
11 1 0.456433 0.237435 0.458031
748 1 0.529353 0.245929 0.481512
1642 1 0.771808 0.264824 0.447561
1225 1 0.132662 0.314785 0.474297
1051 1 0.302512 0.307121 0.463115
1793 1 0.49853 0.312417 0.461311
1189 1 0.612712 0.312124 0.472805
597 1 0.687444 0.292505 0.460363
594 1 0.947829 0.31841 0.464047
121 1 0.0117743 0.357463 0.497305
1194 1 0.0871269 0.379223 0.463092
418 1 0.222956 0.344609 0.482971
492 1 0.281861 0.386158 0.473446
1942 1 0.558229 0.367491 0.463325
1010 1 0.662513 0.38188 0.449594
1453 1 0.895605 0.371763 0.464481
1113 1 0.163978 0.421319 0.475973
1351 1 0.496141 0.428564 0.456743
610 1 0.732366 0.389515 0.498005
1633 1 0.955938 0.419476 0.495605
90 1 0.127561 0.497091 0.459304
180 1 0.244685 0.452399 0.460357
1696 1 0.415611 0.451989 0.478155
1130 1 0.553597 0.449034 0.496767
1880 1 0.690986 0.462709 0.453836
401 1 0.818043 0.49003 0.49518
699 1 0.887292 0.466572 0.456328
1655 1 0.0181084 0.0438817 0.514079
921 1 0.196228 0.0302991 0.54409
933 1 0.27967 0.0143522 0.536544
1848 1 0.374898 0.0271555 0.519813
154 1 0.499714 0.0139135 0.507542
12 1 0.628887 0.0293058 0.526766
680 1 0.71776 0.0234747 0.510935
910 1 0.793267 0.0297484 0.538682
483 1 0.866741 0.0211832 0.518483
2035 1 0.0654794 0.110422 0.512816
1767 1 0.140919 0.0934443 0.551685
1196 1 0.266126 0.0904014 0.538103
396 1 0.345695 0.0932132 0.552063
1781 1 0.543223 0.091429 0.514015
60 1 0.734077 0.0993322 0.5112
489 1 0.938437 0.0612737 0.50935
1075 1 0.188106 0.155096 0.520435
1619 1 0.415999 0.128789 0.542971
1336 1 0.554212 0.162264 0.510492
1249 1 0.66572 0.156936 0.550638
1434 1 0.864286 0.16408 0.503305
1332 1 0.014041 0.167861 0.513587
774 1 0.0905159 0.185538 0.549642
1777 1 0.405365 0.215066 0.528492
300 1 0.0838816 0.260913 0.505401
1989 1 0.254078 0.250355 0.505732
810 1 0.634358 0.231793 0.503824
103 1 0.729266 0.256242 0.532328
165 1 0.802601 0.230935 0.50372
2020 1 0.907717 0.236169 0.500776
130 1 0.0852115 0.329318 0.539465
386 1 0.338387 0.289354 0.538016
508 1 0.428254 0.303531 0.521196
1534 1 0.509243 0.315049 0.547048
1890 1 0.578998 0.285902 0.531635
1442 1 0.762276 0.316101 0.502307
756 1 0.848596 0.303331 0.524351
352 1 0.973503 0.28442 0.547811
1013 1 0.172928 0.361754 0.536504
1335 1 0.272998 0.347232 0.549084
1780 1 0.390209 0.37314 0.504396
1486 1 0.464059 0.372734 0.511645
1957 1 0.548741 0.382817 0.549501
559 1 0.675113 0.339801 0.524445
894 1 0.91606 0.339244 0.538948
1014 1 0.0937253 0.438689 0.514281
889 1 0.226405 0.412083 0.550562
280 1 0.326199 0.40517 0.537586
939 1 0.613111 0.39722 0.50589
1478 1 0.835084 0.391869 0.507001
2010 1 0.0151946 0.457479 0.513337
73 1 0.190332 0.484465 0.511546
740 1 0.321478 0.488273 0.541942
306 1 0.398759 0.485557 0.553932
1947 1 0.471556 0.446966 0.547313
1672 1 0.624772 0.475128 0.512875
1151 1 0.743179 0.483762 0.511536
1651 1 0.0865633 0.040732 0.571004
447 1 0.14548 0.011233 0.611103
1671 1 0.241829 0.0380415 0.605941
118 1 0.317903 0.0509054 0.608168
402 1 0.396846 0.0303524 0.604582
212 1 0.505528 0.00662814 0.586705
1082 1 0.570739 0.0403005 0.570969
586 1 0.637258 0.00735365 0.603291
368 1 0.73347 0.034897 0.596301
1500 1 0.861708 0.00679956 0.602545
1487 1 0.0219602 0.0582483 0.602
1946 1 0.20881 0.107489 0.58843
684 1 0.457085 0.0676229 0.561878
706 1 0.668111 0.0868323 0.575812
5 1 0.791256 0.104421 0.563396
1694 1 0.924869 0.0670562 0.601037
565 1 0.0738275 0.117041 0.592553
1101 1 0.351199 0.163046 0.594606
1132 1 0.48328 0.142483 0.578287
1913 1 0.598975 0.122331 0.578416
1061 1 0.882075 0.121315 0.564018
1485 1 0.959895 0.131143 0.560651
1810 1 0.0090232 0.193056 0.584742
1234 1 0.153329 0.172473 0.591251
1654 1 0.213024 0.221594 0.583223
227 1 0.285173 0.174015 0.556812
1444 1 0.423821 0.189018 0.601831
649 1 0.479238 0.218606 0.558263
1524 1 0.579694 0.214745 0.564774
290 1 0.649277 0.209978 0.606232
1766 1 0.765293 0.180019 0.573305
1393 1 0.847189 0.20374 0.56965
636 1 0.923265 0.203634 0.573282
1704 1 0.0540869 0.271422 0.578513
2002 1 0.138367 0.272145 0.560937
1859 1 0.322175 0.234148 0.579733
662 1 0.41455 0.269453 0.60187
678 1 0.724692 0.242021 0.606875
267 1 0.192139 0.307648 0.604279
311 1 0.668479 0.281856 0.573769
663 1 0.789846 0.281784 0.572369
29 1 0.887395 0.290985 0.590135
1764 1 0.334389 0.353749 0.607066
799 1 0.483098 0.381558 0.594718
203 1 0.616036 0.35177 0.576163
114 1 0.742602 0.346404 0.570752
556 1 0.830925 0.361758 0.588747
2026 1 0.992684 0.375551 0.575941
469 1 0.0937185 0.39791 0.590175
1325 1 0.386283 0.412152 0.581998
379 1 0.599517 0.44222 0.580327
858 1 0.67218 0.415904 0.556679
133 1 0.77652 0.420113 0.555795
588 1 0.864003 0.43959 0.563688
789 1 0.942704 0.433158 0.575347
1586 1 0.151332 0.449326 0.572926
210 1 0.669508 0.490245 0.592397
1914 1 0.75994 0.482325 0.609747
1733 1 0.142784 0.105343 0.633114
107 1 0.269464 0.109506 0.637364
1815 1 0.380166 0.105872 0.636232
1666 1 0.459484 0.0734998 0.648634
219 1 0.550946 0.0693086 0.654615
1529 1 0.66964 0.0648449 0.650773
356 1 0.786949 0.0906169 0.650256
788 1 0.86026 0.0834406 0.652978
1328 1 0.973597 0.0593313 0.663953
84 1 0.469879 0.155965 0.659652
464 1 0.625346 0.150426 0.649338
315 1 0.729367 0.134395 0.627429
1219 1 0.830276 0.151359 0.626428
879 1 0.90714 0.154534 0.633853
1257 1 0.98748 0.134496 0.628834
547 1 0.0614295 0.173578 0.646281
158 1 0.201994 0.174095 0.648183
168 1 0.276228 0.195451 0.644462
1902 1 0.530541 0.19132 0.627797
1027 1 0.795362 0.216696 0.660537
1939 1 0.0435169 0.245955 0.656865
63 1 0.126336 0.224492 0.636132
1046 1 0.19995 0.261958 0.665168
1658 1 0.496307 0.272744 0.611834
1072 1 0.583991 0.270265 0.613708
1548 1 0.877271 0.233984 0.652557
1 1 0.950572 0.250915 0.636055
1185 1 0.00881997 0.312821 0.623376
1344 1 0.121988 0.301987 0.637604
1816 1 0.26137 0.277898 0.616324
671 1 0.327591 0.300266 0.664823
580 1 0.455836 0.330535 0.655696
1452 1 0.829379 0.299054 0.640402
601 1 0.923139 0.318945 0.662396
1271 1 0.0366075 0.378824 0.665373
696 1 0.172791 0.388631 0.623983
956 1 0.229203 0.347751 0.659964
253 1 0.396137 0.37465 0.649244
1003 1 0.541882 0.335384 0.613645
160 1 0.605045 0.355834 0.653788
259 1 0.678578 0.356792 0.625232
834 1 0.760689 0.339677 0.64409
426 1 0.902648 0.380985 0.611223
1018 1 0.0255233 0.433534 0.612465
100 1 0.268107 0.398546 0.614262
754 1 0.328783 0.414543 0.655371
445 1 0.631055 0.431623 0.646531
1999 1 0.709826 0.426508 0.620263
1201 1 0.79216 0.416244 0.627315
640 1 0.956391 0.395122 0.658903
1447 1 0.0867989 0.475305 0.638941
714 1 0.153434 0.455303 0.66106
703 1 0.222627 0.460235 0.62258
1306 1 0.296672 0.481971 0.625352
339 1 0.374542 0.488065 0.629589
585 1 0.481904 0.486188 0.660731
1660 1 0.532077 0.456106 0.61241
1403 1 0.885618 0.445366 0.649108
1233 1 0.955799 0.473204 0.640412
1883 1 0.0499747 0.0340309 0.667759
1794 1 0.122095 0.0463423 0.678578
686 1 0.221223 0.0418015 0.681422
809 1 0.305409 0.00874206 0.679798
482 1 0.384001 0.0205233 0.686388
1129 1 0.461936 0.0218209 0.718564
25 1 0.619266 0.0191712 0.678079
900 1 0.738828 0.0365026 0.688336
1984 1 0.858465 0.012763 0.682617
2000 1 0.0623599 0.110161 0.698201
465 1 0.159709 0.0977591 0.721132
1932 1 0.328795 0.0851956 0.696893
875 1 0.61035 0.105138 0.713523
318 1 0.910768 0.0616837 0.709671
777 1 0.127849 0.165404 0.679597
1882 1 0.253267 0.136275 0.717163
1607 1 0.336336 0.154813 0.67309
1580 1 0.552834 0.150729 0.690395
768 1 0.693423 0.128139 0.693462
1091 1 0.83243 0.137907 0.712249
775 1 0.955014 0.126793 0.700242
1560 1 0.191461 0.210052 0.716459
1372 1 0.407007 0.170406 0.705114
87 1 0.722031 0.196388 0.669769
599 1 0.907377 0.185451 0.717634
1786 1 0.98725 0.202451 0.695539
1367 1 0.113072 0.247885 0.708923
236 1 0.269874 0.26423 0.695683
1073 1 0.37143 0.235804 0.677312
672 1 0.448599 0.250725 0.675651
382 1 0.520503 0.242349 0.715477
15 1 0.594277 0.223266 0.691498
554 1 0.744986 0.250469 0.719652
1370 1 0.929734 0.263038 0.714539
1190 1 0.0687452 0.314377 0.697513
1120 1 0.158723 0.313387 0.707472
1649 1 0.396138 0.311895 0.704069
820 1 0.514237 0.319153 0.721143
1067 1 0.679266 0.281027 0.679947
348 1 0.863075 0.298974 0.708812
233 1 0.982312 0.332302 0.708762
750 1 0.113857 0.379874 0.682246
826 1 0.702261 0.363733 0.695725
1927 1 0.782182 0.335031 0.712954
995 1 0.840982 0.369506 0.676893
1674 1 0.186354 0.391115 0.710506
2011 1 0.266947 0.422809 0.718488
288 1 0.518036 0.403219 0.667652
77 1 0.0208088 0.457847 0.687123
330 1 0.245316 0.496896 0.710827
1186 1 0.328832 0.479089 0.693753
1323 1 0.408423 0.444943 0.684595
701 1 0.557662 0.470231 0.691586
1676 1 0.632393 0.456739 0.716125
294 1 0.812654 0.479512 0.674569
1934 1 0.16257 0.010701 0.732651
444 1 0.273362 0.00659108 0.750274
673 1 0.343924 0.0256021 0.754213
787 1 0.572454 0.0233537 0.740068
1109 1 0.688096 0.0457715 0.748119
1530 1 0.769442 0.0324414 0.771174
285 1 0.0235195 0.0580621 0.738183
1377 1 0.228859 0.0700131 0.769511
573 1 0.431652 0.093188 0.737858
1011 1 0.521706 0.0824172 0.75024
1033 1 0.757241 0.0988075 0.729211
733 1 0.839882 0.056027 0.742856
136 1 0.95861 0.0671799 0.772483
1060 1 0.00140048 0.128956 0.766526
1564 1 0.354326 0.148475 0.753317
1858 1 0.483135 0.16004 0.751409
1164 1 0.775368 0.164138 0.773703
1425 1 0.910608 0.124228 0.759629
1755 1 0.0558489 0.189168 0.726324
129 1 0.307034 0.204 0.732208
574 1 0.608395 0.207136 0.77085
106 1 0.703058 0.18762 0.748977
301 1 0.847982 0.200786 0.763654
258 1 0.960597 0.20019 0.770571
1847 1 0.0148163 0.260989 0.725317
328 1 0.222169 0.269521 0.755431
1647 1 0.328931 0.276806 0.754244
667 1 0.382688 0.229385 0.775208
1572 1 0.453013 0.232734 0.753911
96 1 0.581131 0.274867 0.747893
608 1 0.670185 0.26087 0.753433
1908 1 0.809077 0.275008 0.765204
780 1 0.262042 0.329764 0.732492
567 1 0.44937 0.321859 0.76523
138 1 0.640555 0.323851 0.731398
579 1 0.0857408 0.371214 0.753086
745 1 0.19288 0.345215 0.77115
1663 1 0.345316 0.377421 0.722615
453 1 0.429916 0.382875 0.72597
1042 1 0.517258 0.387827 0.766708
1969 1 0.579185 0.369393 0.727037
1728 1 0.904075 0.373172 0.738233
1628 1 0.127597 0.440535 0.737086
539 1 0.646348 0.390963 0.760529
1688 1 0.734128 0.389507 0.757735
119 1 0.80091 0.430471 0.729682
1039 1 0.984373 0.400238 0.739923
974 1 0.0597975 0.450004 0.764748
2034 1 0.200471 0.454984 0.763322
1527 1 0.492967 0.468827 0.745171
1840 1 0.562157 0.451452 0.77765
1726 1 0.706905 0.450429 0.727408
1684 1 0.860487 0.492244 0.76933
1699 1 0.918367 0.447142 0.758751
611 1 0.994799 0.4936 0.753226
454 1 0.110028 0.048533 0.804394
886 1 0.184427 0.0438358 0.824145
1002 1 0.271405 0.0390092 0.823372
284 1 0.411964 0.0033719 0.78043
487 1 0.480373 0.0114213 0.821977
1159 1 0.690896 0.0471689 0.831465
1368 1 0.837351 0.006496 0.804202
1821 1 0.0336611 0.0778337 0.817613
934 1 0.309109 0.0933767 0.778498
615 1 0.38426 0.0872838 0.809614
108 1 0.470971 0.0856092 0.80413
430 1 0.617905 0.0573635 0.804741
938 1 0.723027 0.102332 0.7956
1277 1 0.900659 0.0574902 0.824336
1304 1 0.0895949 0.117288 0.783589
1384 1 0.163309 0.129606 0.818204
1114 1 0.337722 0.162034 0.827889
876 1 0.415734 0.157443 0.794989
296 1 0.502491 0.153221 0.829782
528 1 0.564153 0.136828 0.789693
2001 1 0.662076 0.149046 0.802338
629 1 0.847486 0.114592 0.802415
969 1 0.988697 0.166093 0.830152
1305 1 0.123838 0.194283 0.784324
1759 1 0.212992 0.186667 0.795962
1032 1 0.528846 0.211918 0.787427
1176 1 0.910021 0.179665 0.819511
428 1 0.045383 0.237675 0.80079
1211 1 0.187426 0.254933 0.823072
1735 1 0.281783 0.22799 0.796553
1981 1 0.474498 0.255557 0.824929
1982 1 0.65744 0.243646 0.832531
1301 1 0.747509 0.248688 0.806436
283 1 0.88964 0.269415 0.787295
89 1 0.0752855 0.326206 0.82251
1753 1 0.128813 0.292263 0.778926
859 1 0.281466 0.306995 0.803707
1348 1 0.533137 0.309482 0.804513
1641 1 0.718873 0.313042 0.778592
965 1 0.959911 0.300308 0.783901
153 1 0.00310818 0.363587 0.800846
1246 1 0.297108 0.383463 0.784905
1169 1 0.386632 0.341578 0.7945
491 1 0.593329 0.354794 0.799489
946 1 0.757345 0.346864 0.831909
829 1 0.818956 0.349202 0.788283
51 1 0.893074 0.345106 0.808836
1217 1 0.123153 0.40812 0.816359
188 1 0.449191 0.408232 0.795586
1148 1 0.698863 0.399931 0.831229
44 1 0.849797 0.420615 0.790758
534 1 0.937048 0.409568 0.823621
1081 1 0.281931 0.467299 0.787405
544 1 0.373926 0.455631 0.781461
1498 1 0.442857 0.492615 0.825605
562 1 0.629371 0.487711 0.785747
1334 1 0.710845 0.474861 0.8034
268 1 0.990592 0.462838 0.824857
530 1 0.0435878 0.0125483 0.861944
1551 1 0.122049 0.00289977 0.880082
1937 1 0.342289 0.0271381 0.85518
157 1 0.418234 0.0408171 0.860609
719 1 0.605193 0.0313128 0.874073
411 1 0.750741 0.00725087 0.876636
1420 1 0.971926 0.0414475 0.847084
211 1 0.0853865 0.0921341 0.882938
1841 1 0.225837 0.0665399 0.884071
455 1 0.312803 0.0931706 0.857393
223 1 0.490357 0.0895821 0.888835
33 1 0.550152 0.0727828 0.84259
1180 1 0.618527 0.108903 0.873313
1545 1 0.808025 0.0578984 0.856714
1239 1 0.880088 0.107488 0.883152
872 1 0.258354 0.142908 0.836028
930 1 0.381889 0.111137 0.88196
177 1 0.699205 0.120024 0.866652
312 1 0.771283 0.128618 0.844251
898 1 0.0215022 0.217611 0.872617
1182 1 0.0722472 0.170762 0.833528
505 1 0.151897 0.185486 0.874247
45 1 0.241182 0.219394 0.859403
69 1 0.410977 0.189678 0.864825
1278 1 0.591259 0.186358 0.84044
1396 1 0.713971 0.191997 0.836265
145 1 0.824147 0.193133 0.841345