ITEM: TIMESTEP
100000
ITEM: NUMBER OF ATOMS
2048
ITEM: BOX BOUNDS pp pp pp
0.0000000000000000e+00 1.3679807573413575e+01
0.0000000000000000e+00 1.3679807573413575e+01
0.0000000000000000e+00 1.3679807573413575e+01
ITEM: ATOMS id type xs ys zs
1043 1 0.512406 0.393774 0.174407
424 1 0.454039 0.25962 0.0811004
1773 1 0.670446 0.236974 0.231518
47 1 0.976595 0.246734 0.0584164
134 1 0.788793 0.246601 0.101027
1761 1 0.970946 0.470598 0.283179
88 1 0.567159 0.125555 0.0803782
1454 1 0.448834 0.204998 0.0247807
211 1 0.606837 0.146358 0.161293
553 1 0.865844 0.177706 0.0900822
1019 1 0.902523 0.0266115 0.301065
2009 1 0.849112 0.294665 0.0868493
1968 1 0.15502 0.0726681 0.123973
1014 1 0.425451 0.283548 0.470818
558 1 0.240594 0.157844 0.102109
613 1 0.60316 0.400694 0.426501
1575 1 0.257789 0.493361 0.492222
1456 1 0.402885 0.173556 0.0659446
1267 1 0.701688 0.281227 0.465621
999 1 0.682335 0.448094 0.452357
529 1 0.310515 0.0464894 0.215512
1280 1 0.332574 0.164385 0.489872
249 1 0.371867 0.0564774 0.254718
1001 1 0.721414 0.111389 0.22517
846 1 0.568067 0.483962 0.332885
1064 1 0.829771 0.137795 0.439034
398 1 0.774495 0.100826 0.298488
164 1 0.458586 0.467239 0.465827
814 1 0.119236 0.0213927 0.165688
1650 1 0.28209 0.248653 0.177147
1533 1 0.677038 0.0624795 0.0665771
619 1 0.639389 0.401827 0.254734
768 1 0.494297 0.318545 0.0842594
904 1 0.802601 0.411667 0.0737289
1401 1 0.865826 0.236205 0.429081
261 1 0.519255 0.110433 0.322962
393 1 0.76386 0.0738613 0.363351
228 1 0.837159 0.380855 0.178878
1193 1 0.527254 0.00752116 0.367675
1492 1 0.627237 0.365749 0.486975
193 1 0.73149 0.138111 0.458612
1994 1 0.15221 0.116316 0.237285
1076 1 0.50923 0.303675 0.402075
1687 1 0.654791 0.0389234 0.355784
1816 1 0.39844 0.0879908 0.129163
1384 1 0.541931 0.433379 0.26749
1482 1 0.00846454 0.034375 0.352745
320 1 0.0526507 0.457551 0.317815
86 1 0.47189 0.384399 0.451674
1463 1 0.419821 0.156122 0.348906
1528 1 0.709895 0.261106 0.0897296
1843 1 0.595551 0.391678 0.315991
896 1 0.456713 0.256811 0.389932
1392 1 0.941344 0.110269 0.261072
1703 1 0.290766 0.240987 0.0962531
1135 1 0.200167 0.345793 0.0551651
693 1 0.268862 0.176425 0.17426
528 1 0.918692 0.0183405 0.475242
1515 1 0.997728 0.442737 0.147008
54 1 0.475646 0.454289 0.186799
110 1 0.1076 0.0590567 0.233874
1823 1 0.196237 0.111383 0.343896
35 1 0.383657 0.24377 0.112793
1236 1 0.557281 0.245712 0.261036
100 1 0.531453 0.476942 0.394803
1830 1 0.774583 0.204763 0.0283581
462 1 0.602227 0.470589 0.401017
1079 1 0.657789 0.0752655 0.241193
1705 1 0.356304 0.26762 0.299876
1247 1 0.663591 0.190415 0.113979
1218 1 0.55779 0.0860239 0.20559
1374 1 0.938077 0.372043 0.0179897
289 1 0.396794 0.0296084 0.481683
1637 1 0.317036 0.0261816 0.331725
539 1 0.521906 0.483405 0.493084
1464 1 0.0704301 0.148535 0.000950641
148 1 0.857048 0.222314 0.226658
1479 1 0.250465 0.0349092 0.254302
373 1 0.828591 0.0163971 0.107859
1520 1 0.566309 0.330259 0.450851
290 1 0.492285 0.195131 0.138672
1781 1 0.0125023 0.200279 0.161858
1203 1 0.858115 0.285979 0.48827
1521 1 0.100604 0.480314 0.0610827
1373 1 0.865513 0.443604 0.162507
1075 1 0.347405 0.234354 0.233062
222 1 0.630744 0.335489 0.192016
802 1 0.741585 0.375954 0.0751675
1544 1 0.986235 0.302259 0.16754
1034 1 0.0445278 0.437847 0.0955423
1551 1 0.829327 0.471629 0.3576
501 1 0.806914 0.495976 0.254887
1358 1 0.35821 0.279353 0.171994
901 1 0.554862 0.215729 0.341856
152 1 0.121238 0.42327 0.0166858
1790 1 0.331594 0.164543 0.212187
175 1 0.409061 0.34685 0.490272
973 1 0.647375 0.433846 0.114224
1849 1 0.277568 0.459888 0.144622
1894 1 0.348299 0.444811 0.105126
1978 1 0.567323 0.305866 0.214557
823 1 0.127506 0.152773 0.480695
1949 1 0.885068 0.459029 0.416615
966 1 0.225609 0.254831 0.112394
2014 1 0.14371 0.362477 0.258126
1130 1 0.995048 0.471351 0.417597
242 1 0.618152 0.0413501 0.100987
1431 1 0.768615 0.0957357 0.104439
1146 1 0.928323 0.446496 0.357174
1025 1 0.341133 0.0774212 0.0808484
1549 1 0.131382 0.251356 0.0826042
1626 1 0.670911 0.226049 0.0296404
884 1 0.189456 0.0667127 0.40939
1435 1 0.955183 0.230193 0.477549
752 1 0.441457 0.144882 0.145837
583 1 0.436741 0.0781549 0.191315
1850 1 0.237973 0.00165874 0.336268
652 1 0.293099 0.0219873 0.111773
1510 1 0.0625518 0.101735 0.335035
1107 1 0.549246 0.213432 0.187479
1655 1 0.724631 0.375485 0.242143
868 1 0.608123 0.123958 0.238008
557 1 0.292002 0.119896 0.139764
1963 1 0.414248 0.268578 0.234641
562 1 0.257029 0.456786 0.227733
596 1 0.0813157 0.253711 0.135701
655 1 0.248509 0.132884 0.256365
1047 1 0.232718 0.0854121 0.19782
740 1 0.347256 0.44044 0.363829
1053 1 0.912948 0.242391 0.374965
466 1 0.489897 0.133105 0.0809458
1763 1 0.886709 0.0691595 0.16705
483 1 0.101184 0.358936 0.428544
1312 1 0.18199 0.274818 0.246925
1904 1 0.0055431 0.148534 0.206434
1851 1 0.302859 0.150268 0.0634753
1796 1 0.290244 0.305442 0.129381
1233 1 0.552834 0.325774 0.305865
957 1 0.785246 0.0307188 0.233749
410 1 0.858378 0.312337 0.184564
907 1 0.871468 0.450764 0.0804571
61 1 0.954151 0.447043 0.0789711
1735 1 0.63329 0.0111397 0.0150241
1093 1 0.937204 0.154771 0.189449
144 1 0.720643 0.238811 0.174279
355 1 0.667339 0.314317 0.108799
1333 1 0.600893 0.341392 0.372314
1719 1 0.232783 0.0750366 0.10664
349 1 0.87512 0.487928 0.230305
2 1 0.0267106 0.0737951 0.407009
1396 1 0.694532 0.236159 0.337829
1933 1 0.51868 0.015208 0.211299
1448 1 0.00962265 0.501233 0.0745739
955 1 0.0400602 0.376767 0.18986
1969 1 0.366128 0.168269 0.142622
1900 1 0.715758 0.161213 0.0696342
1176 1 0.0952871 0.11047 0.0915608
1143 1 0.973889 0.145132 0.496702
1826 1 0.876542 0.380507 0.1048
1803 1 0.648244 0.108613 0.00955952
504 1 0.880821 0.165506 0.483985
197 1 0.539857 0.467008 0.0684568
417 1 0.683846 0.164213 0.310785
1926 1 0.0612505 0.338932 0.114695
1287 1 0.334722 0.063418 0.489924
1446 1 0.16781 0.23849 0.159999
1658 1 0.236066 0.181555 0.354499
1246 1 0.312742 0.104665 0.271146
1444 1 0.599275 0.255069 0.0372203
1308 1 0.790685 0.256786 0.2081
345 1 0.305053 0.126227 0.366911
1610 1 0.144323 0.386745 0.0722597
511 1 0.410243 0.303001 0.340096
184 1 0.518315 0.132797 0.250797
1265 1 0.80239 0.181722 0.232156
19 1 0.353376 0.313869 0.0978034
183 1 0.463895 0.345117 0.199499
139 1 0.468989 0.408042 0.103112
630 1 0.982681 0.200816 0.377189
637 1 0.767587 0.177708 0.14877
707 1 0.466095 0.0539778 0.353675
1543 1 0.258617 0.294581 0.0548391
1044 1 0.294298 0.179323 0.275806
1285 1 0.238316 0.0583408 0.475122
589 1 0.473327 0.174676 0.476883
1390 1 0.116275 0.182484 0.0465631
213 1 0.322992 0.394751 0.171152
1335 1 0.484671 0.185945 0.279271
1467 1 0.625016 0.406368 0.186006
779 1 0.955644 0.17157 0.112957
264 1 0.189356 0.180151 0.235627
1800 1 0.699732 0.440227 0.205389
1182 1 0.034457 0.338078 0.31005
1402 1 0.538551 0.419103 0.447692
1828 1 0.464466 0.091231 0.258021
245 1 0.636484 0.356113 0.0147781
805 1 0.364297 0.0888741 0.192646
1429 1 0.993155 0.0754031 0.204011
395 1 0.48659 0.299082 0.15394
490 1 0.510769 0.271201 0.337977
1760 1 0.618978 0.0845935 0.426623
81 1 0.923329 0.338834 0.15351
612 1 0.850808 0.370014 0.436824
739 1 0.0295689 0.109111 0.0502636
604 1 0.558282 0.339286 0.131013
1474 1 0.588877 0.00182859 0.15787
602 1 0.598178 0.0950047 0.493917
981 1 0.175668 0.438456 0.108882
1769 1 0.509801 0.357138 0.253257
498 1 0.619774 0.220081 0.182792
342 1 0.634718 0.223183 0.295018
1440 1 0.126381 0.112643 0.0261593
1688 1 0.65407 0.109027 0.340707
1259 1 0.286382 0.443365 0.396578
1808 1 0.909094 0.184699 0.307828
1200 1 0.233231 0.123392 0.420148
1740 1 0.507731 0.29605 0.474726
1720 1 0.720793 0.208554 0.419571
1299 1 0.819061 0.189721 0.310969
786 1 0.192307 0.279491 0.465981
1377 1 0.112748 0.313049 0.0445933
248 1 0.410026 0.205521 0.281427
105 1 0.0566312 0.0665564 0.132081
1558 1 0.0286267 0.128879 0.123387
1653 1 0.0915314 0.490243 0.135112
658 1 0.311841 0.407982 0.0313971
1068 1 0.435397 0.250959 0.16486
405 1 0.752156 0.193717 0.329313
1506 1 0.00901109 0.312788 0.0569943
1782 1 0.103798 0.15984 0.212437
72 1 0.414119 0.204991 0.409613
627 1 0.926593 0.0087292 0.157488
421 1 0.830305 0.264319 0.0172411
350 1 0.61127 0.434459 0.0289495
1981 1 0.764292 0.475691 0.305423
689 1 0.934403 0.410682 0.142178
550 1 0.399465 0.187063 0.21088
1270 1 0.548834 0.0530846 0.11675
402 1 0.838178 0.346474 0.0298966
1461 1 0.923119 0.250329 0.13214
241 1 0.913013 0.275831 0.247642
1172 1 0.0183546 0.456435 0.219297
1364 1 0.302418 0.376632 0.0965769
315 1 0.510491 0.234168 0.430294
1607 1 0.660486 0.186074 0.388586
1327 1 0.504966 0.105495 0.485502
1371 1 0.0543974 0.280745 0.190345
1066 1 0.0875152 0.401162 0.251296
1409 1 0.124444 0.282446 0.187859
464 1 0.751925 0.296273 0.140238
153 1 0.231795 0.346648 0.355533
1023 1 0.243188 0.406464 0.0713999
983 1 0.273827 0.191116 0.415243
1427 1 0.555238 0.269353 0.130054
306 1 0.75562 0.225437 0.266362
1895 1 0.0281241 0.14607 0.453673
1028 1 0.157653 0.318856 0.33227
1940 1 0.67434 0.114751 0.125861
1055 1 0.856763 0.281552 0.287087
378 1 0.262917 0.0139254 0.425314
155 1 0.990535 0.142456 0.301778
480 1 0.481351 0.0523575 0.13034
1447 1 0.833558 0.0589352 0.376086
1602 1 0.146245 0.224132 0.491263
101 1 0.874322 0.0883714 0.330067
1897 1 0.333603 0.313328 0.350997
1590 1 0.377165 0.12941 0.25679
520 1 0.583175 0.190957 0.405983
1226 1 0.765889 0.143471 0.3813
1916 1 0.950939 0.339535 0.307401
1169 1 0.729859 0.297513 0.275611
942 1 0.0558027 0.0980014 0.266436
1635 1 0.119491 0.186129 0.126317
1281 1 0.306621 0.331484 0.198887
1562 1 0.184419 0.140372 0.151409
377 1 0.381275 0.0223994 0.173955
1011 1 0.768501 0.403408 0.484433
265 1 0.220711 0.405686 0.404021
1121 1 0.0473487 0.268063 0.0184034
778 1 0.263258 0.282997 0.23175
859 1 0.731786 0.442157 0.371602
1621 1 0.244757 0.257519 0.420719
687 1 0.942244 0.44516 0.207322
37 1 0.0632618 0.365726 0.0337568
1668 1 0.427776 0.322956 0.123638
1938 1 0.380958 0.485081 0.042042
1404 1 0.839626 0.00759761 0.186395
1887 1 0.538656 0.396827 0.0879108
1189 1 0.21798 0.298101 0.175182
1452 1 0.441413 0.322823 0.27464
542 1 0.925751 0.298302 0.0512779
902 1 0.414057 0.452635 0.318401
1772 1 0.689155 0.379618 0.158249
208 1 0.0187344 0.408561 0.282192
737 1 0.281336 0.109943 0.49944
1692 1 0.508287 0.448157 0.335798
1959 1 0.182775 0.465965 0.389421
1449 1 0.429751 0.0816142 0.066424
1867 1 0.245721 0.360678 0.226096
738 1 0.98354 0.403576 0.4765
1743 1 0.394421 0.378567 0.27641
1332 1 0.807957 0.352368 0.109344
1990 1 0.545452 0.04903 0.443332
629 1 0.388858 0.443544 0.423852
178 1 0.547211 0.0531861 0.0147999
997 1 0.164447 0.13576 0.406206
1469 1 0.89734 0.483303 0.300528
44 1 0.544628 0.188836 0.470908
1818 1 0.640033 0.281149 0.355261
1681 1 0.582891 0.435618 0.136101
1888 1 0.374234 0.346577 0.218229
875 1 0.884428 0.325109 0.347061
93 1 0.45072 0.0214293 0.250999
1765 1 0.351446 0.338677 0.428323
1410 1 0.800865 0.209943 0.400715
954 1 0.040083 0.390833 0.428969
540 1 0.130526 0.0851468 0.304871
1581 1 0.0556929 0.20802 0.341368
1036 1 0.308154 0.333619 0.272536
1832 1 0.882361 0.152629 0.369219
1884 1 0.989707 0.20839 0.264884
1 1 0.979169 0.0843103 0.458808
769 1 0.499335 0.172993 0.363755
847 1 0.404043 0.440013 0.167377
3 1 0.708191 0.18049 0.224817
1995 1 0.789635 0.0295289 0.472557
1807 1 0.0652532 0.0221587 0.450004
1450 1 0.060505 0.218549 0.224239
1989 1 0.425809 0.481205 0.109075
321 1 0.11616 0.249007 0.322763
366 1 0.115424 0.474188 0.26788
1673 1 0.636517 0.162859 0.0554711
255 1 0.182541 0.34568 0.424539
1630 1 0.301151 0.379036 0.365717
1833 1 0.786889 0.337214 0.213654
317 1 0.0637971 0.481898 0.387817
459 1 0.566813 0.466524 0.206177
1905 1 0.812376 0.258364 0.344202
702 1 0.170367 0.0545542 0.0459701
524 1 0.71283 0.0545794 0.451357
1278 1 0.39337 0.387333 0.0814441
76 1 0.675611 0.345088 0.360804
1691 1 0.940732 0.0735276 0.091687
182 1 0.771622 0.344029 0.327027
1097 1 0.691587 0.296674 0.0266511
151 1 0.317647 0.438883 0.270653
57 1 0.798009 0.27111 0.439957
1413 1 0.0502224 0.268639 0.273707
1415 1 0.0937691 0.313766 0.354533
385 1 0.310322 0.0920699 0.013964
83 1 0.49705 0.25374 0.220295
956 1 0.190705 0.434238 0.259638
1783 1 0.854227 0.0901009 0.0979258
1252 1 0.446216 0.324287 0.417501
1212 1 0.563844 0.257501 0.486801
423 1 0.143585 0.444609 0.185577
2006 1 0.100698 0.392686 0.341637
1222 1 0.343655 0.205097 0.433192
1518 1 0.778049 0.496386 0.0532951
1709 1 0.516081 0.121705 0.0151828
1885 1 0.846837 0.233844 0.139335
1298 1 0.478827 0.110237 0.403727
1857 1 0.485459 0.362005 0.355025
492 1 0.987401 0.0490588 0.0356425
412 1 0.760482 0.311246 0.0268998
1775 1 0.664976 0.0085065 0.479789
1817 1 0.572906 0.0904137 0.37081
1649 1 0.161382 0.427123 0.329658
809 1 0.2505 0.128703 0.00222627
700 1 0.154058 0.301486 0.123449
2021 1 0.401479 0.423344 0.490901
307 1 0.839345 0.122896 0.278888
304 1 0.825202 0.0364014 0.299319
559 1 0.326187 0.295232 0.028462
1934 1 0.691497 0.115216 0.398367
2022 1 0.840113 0.42353 0.289946
597 1 0.111726 0.171808 0.358465
39 1 0.101647 0.0959203 0.173599
643 1 0.201757 0.350071 0.495558
1120 1 0.726647 0.0893984 0.0122296
1432 1 0.475135 0.0452393 0.461162
1902 1 0.247666 0.23545 0.283084
1964 1 0.340186 0.191303 0.333962
133 1 0.796139 0.055604 0.0426201
514 1 0.992079 0.0180325 0.439391
408 1 0.992022 0.389121 0.0798283
485 1 0.944938 0.385966 0.392239
465 1 0.937429 0.410837 0.296111
798 1 0.205109 0.193754 0.460557
715 1 0.907112 0.130545 0.0491853
1656 1 0.214401 0.327285 0.288449
2047 1 0.0999349 0.403507 0.139941
1601 1 0.764398 0.335092 0.45587
993 1 0.828747 0.315956 0.395434
2035 1 0.213231 0.434202 0.46758
1340 1 0.318941 0.450572 0.466335
1753 1 0.88657 0.102072 0.458403
1242 1 0.634139 0.310742 0.426244
1081 1 0.86544 0.352552 0.252787
126 1 0.171472 0.381443 0.177357
1676 1 0.921169 0.436854 0.468931
1853 1 0.0135174 0.324121 0.233949
567 1 0.358208 0.081674 0.339572
280 1 0.554351 0.120086 0.428147
1080 1 0.208242 0.245353 0.343817
1879 1 0.0483352 0.321999 0.404752
1570 1 0.619708 0.240053 0.448523
127 1 0.0235086 0.260138 0.425464
1006 1 0.777389 0.431927 0.25021
1704 1 0.578983 0.269598 0.396644
1232 1 0.365361 0.00866747 0.0959486
1875 1 0.704548 0.464313 0.0844426
890 1 0.112943 0.064597 0.368752
1012 1 0.093982 0.157088 0.28662
1054 1 0.716803 0.0595383 0.283891
1361 1 0.0496109 0.0279609 0.0610611
260 1 0.781352 0.482979 0.453128
1538 1 0.0842033 0.323239 0.249557
1170 1 0.171914 0.221599 0.39627
1436 1 0.331169 0.0859896 0.423634
1305 1 0.253901 0.429528 0.337355
1425 1 0.577469 0.168795 0.284489
343 1 0.18505 0.00279949 0.132996
959 1 0.288442 0.240066 0.351732
1153 1 0.691988 0.362029 0.437852
205 1 0.77614 0.372355 0.397457
142 1 0.137461 0.0796172 0.458501
384 1 0.926148 0.169718 0.432774
2045 1 0.149729 0.408241 0.411205
69 1 0.359191 0.26572 0.398382
212 1 0.537138 0.371337 0.397441
1391 1 0.656176 0.128626 0.471933
1595 1 0.183345 0.17685 0.303914
1134 1 0.942894 0.375733 0.227779
595 1 0.0933156 0.27494 0.428048
257 1 0.758729 0.384991 0.151476
840 1 0.887895 0.0499042 0.0349496
1356 1 0.268467 0.224238 0.0272172
915 1 0.862288 0.145337 0.160602
46 1 0.40395 0.312501 0.0404183
905 1 0.988475 0.427969 0.0231725
900 1 0.256336 0.0673204 0.368289
220 1 0.658133 0.414812 0.376428
207 1 0.00259983 0.42036 0.347785
1567 1 0.273453 0.468802 0.0682039
117 1 0.0310439 0.185169 0.0782698
33 1 0.282216 0.321548 0.40107
713 1 0.906553 0.0262678 0.399736
1190 1 0.979257 0.0262009 0.251424
1624 1 0.0577171 0.343683 0.484896
493 1 0.615489 0.0487076 0.295756
757 1 0.174044 0.245713 0.0075462
1667 1 0.925952 0.207193 0.232702
1913 1 0.663536 0.464461 0.317023
1294 1 0.522047 0.265448 0.0295308
299 1 0.598559 0.00554078 0.385711
50 1 0.457717 0.147943 0.213706
368 1 0.408234 0.0703379 0.417351
1965 1 0.4527 0.42623 0.384264
479 1 0.646882 0.330147 0.285045
1084 1 0.735649 0.067387 0.170766
1136 1 0.675453 0.00993719 0.234377
1582 1 0.572461 0.19182 0.117209
645 1 0.94472 0.0944859 0.395282
672 1 0.978736 0.30206 0.458675
848 1 0.773638 0.483581 0.122947
507 1 0.232365 0.403314 0.142246
1822 1 0.58459 0.322085 0.0580201
797 1 0.528196 0.142449 0.173091
324 1 0.971456 0.267564 0.309103
517 1 0.180931 0.45879 0.0134103
1117 1 0.695771 0.313791 0.209714
420 1 0.429435 0.104646 0.491071
1329 1 0.718956 0.430843 0.0218999
603 1 0.0242394 0.273804 0.356014
1458 1 0.375068 0.247209 0.0409691
1695 1 0.235244 0.055707 0.0217739
1632 1 0.548317 0.0531048 0.275349
481 1 0.741609 0.27918 0.39572
1860 1 0.0832071 0.199067 0.450221
1149 1 0.907978 0.305378 0.422775
1542 1 0.750868 0.016186 0.123917
2016 1 0.726286 0.408774 0.310954
1030 1 0.871621 0.392415 0.367113
1185 1 0.800903 0.0926924 0.170367
1443 1 0.0955139 0.120271 0.419136
16 1 0.172569 0.0247698 0.351122
908 1 0.641686 0.0538955 0.166555
1797 1 0.505265 0.200355 0.0703764
1437 1 0.184209 0.160264 0.0473893
457 1 0.389933 0.373612 0.367653
1594 1 0.0234325 0.491404 0.491274
1345 1 0.673465 0.384852 0.0665428
631 1 0.440232 0.431033 0.247653
1891 1 0.512895 0.480333 0.131633
1297 1 0.359757 0.478166 0.230524
1421 1 0.00241752 0.0203258 0.135611
1428 1 0.182474 0.00662431 0.210967
1618 1 0.271097 0.319548 0.470747
1564 1 0.466362 0.461613 0.0540394
1847 1 0.108954 0.485583 0.468513
296 1 0.165094 0.0146137 0.458559
1114 1 0.723958 0.0152717 0.382193
681 1 0.164818 0.319455 0.00191561
102 1 0.0688972 0.0774913 0.498072
1741 1 0.908212 0.245044 0.00312511
1525 1 0.403152 0.0225838 0.775914
844 1 0.334455 0.408577 0.961457
2020 1 0.791231 0.288892 0.932125
880 1 0.930174 0.453266 0.96861
1002 1 0.352711 0.393368 0.597744
451 1 0.12879 0.333724 0.881112
477 1 0.520131 0.0746497 0.786901
1636 1 0.363028 0.0370195 0.552503
1065 1 0.748555 0.439383 0.58953
1754 1 0.0473892 0.116931 0.659474
1174 1 0.465052 0.157836 0.760886
1077 1 0.452756 0.449636 0.969688
1489 1 0.636801 0.454624 0.920299
1359 1 0.360574 0.0692318 0.723261
683 1 0.423808 0.427962 0.664435
2005 1 0.708754 0.149118 0.798391
1799 1 0.218858 0.358442 0.680756
1434 1 0.0655461 0.399774 0.579247
1217 1 0.766282 0.122882 0.602807
278 1 0.254667 0.412482 0.532302
189 1 0.235058 0.349372 0.566186
281 1 0.614923 0.156904 0.779049
1947 1 0.299695 0.465407 0.986969
188 1 0.064619 0.434876 0.823243
746 1 0.600652 0.494085 0.96662
1776 1 0.260098 0.302777 0.744873
387 1 0.948377 0.447127 0.635319
1005 1 0.413072 0.338679 0.856545
1912 1 0.308392 0.348314 0.55773
728 1 0.915327 0.321986 0.518044
1806 1 0.183775 0.226025 0.87251
2040 1 0.439528 0.495688 0.75607
276 1 0.265542 0.4869 0.659994
1424 1 0.682796 0.249653 0.667842
926 1 0.666296 0.31237 0.869758
325 1 0.0017586 0.308849 0.687385
692 1 0.265229 0.47018 0.585245
872 1 0.957196 0.452292 0.734352
192 1 0.320071 0.374315 0.879452
1749 1 0.591844 0.0807518 0.770885
1349 1 0.254882 0.494816 0.904852
42 1 0.535287 0.446813 0.82442
1767 1 0.751932 0.244735 0.700355
1976 1 0.832045 0.346263 0.812069
1746 1 0.265625 0.477311 0.773011
1599 1 0.714933 0.0178709 0.893438
381 1 0.543841 0.322929 0.536127
922 1 0.9258 0.392433 0.528247
964 1 0.255146 0.195469 0.96577
103 1 0.1137 0.0179443 0.762057
123 1 0.444052 0.152479 0.598333
256 1 0.898901 0.39474 0.902692
1213 1 0.733418 0.0241253 0.519223
1541 1 0.723461 0.374462 0.977492
1678 1 0.200521 0.400324 0.603944
1248 1 0.568869 0.233585 0.558724
1325 1 0.930033 0.0748893 0.792822
1928 1 0.877175 0.220412 0.531479
78 1 0.452455 0.426844 0.730388
63 1 0.136868 0.415354 0.858117
664 1 0.426186 0.0230227 0.704142
1380 1 0.358545 0.48996 0.763091
218 1 0.642469 0.230053 0.600888
1462 1 0.374472 0.277099 0.86113
1841 1 0.808014 0.455596 0.824708
817 1 0.109089 0.156257 0.656296
87 1 0.451378 0.25505 0.886424
968 1 0.18756 0.299606 0.621957
914 1 0.201081 0.285674 0.698932
1680 1 0.331621 0.15814 0.570919
1289 1 0.668937 0.402825 0.54951
497 1 0.93618 0.198173 0.698624
1988 1 0.724057 0.240548 0.983492
834 1 0.129825 0.305519 0.661984
1301 1 0.237775 0.339345 0.984185
456 1 0.480683 0.140698 0.663574
537 1 0.968129 0.0732606 0.699066
534 1 0.0242768 0.412057 0.734694
236 1 0.0316151 0.46638 0.890731
708 1 0.229711 0.0102428 0.857088
313 1 0.405747 0.268104 0.654119
1472 1 0.435726 0.409116 0.808801
1171 1 0.0835973 0.215607 0.975625
615 1 0.795128 0.360652 0.616686
1737 1 0.158272 0.434684 0.517048
36 1 0.691145 0.125609 0.573033
409 1 0.570578 0.485184 0.674033
1876 1 0.71688 0.36053 0.602275
1321 1 0.468207 0.330295 0.98759
1235 1 0.526291 0.189317 0.990386
881 1 0.129734 0.382185 0.612921
1536 1 0.0570229 0.181758 0.515447
784 1 0.320132 0.412799 0.780002
1442 1 0.773325 0.162901 0.832176
1078 1 0.31718 0.481762 0.536563
544 1 0.406667 0.0968848 0.785452
1320 1 0.91646 0.248013 0.926551
691 1 0.618591 0.460762 0.589376
1106 1 0.326171 0.488792 0.9174
1856 1 0.709527 0.354562 0.833785
2026 1 0.293501 0.336508 0.679118
375 1 0.946289 0.169516 0.595905
1736 1 0.304819 0.114405 0.746206
1858 1 0.458526 0.462608 0.863256
1531 1 0.00528785 0.215679 0.590866
549 1 0.498993 0.398444 0.644312
327 1 0.789821 0.14542 0.99037
878 1 0.488026 0.439848 0.558893
1328 1 0.109423 0.131005 0.586122
1815 1 0.393873 0.358273 0.706302
1672 1 0.19479 0.167809 0.935356
353 1 0.698539 0.410037 0.906312
1919 1 0.687729 0.0705549 0.61454
673 1 0.875244 0.218952 0.727635
640 1 0.61213 0.469543 0.502552
338 1 0.717767 0.481204 0.668798
1085 1 0.183473 0.402884 0.944942
1710 1 0.593819 0.0221078 0.504916
1018 1 0.73493 0.20987 0.781415
347 1 0.203234 0.484059 0.540376
614 1 0.501069 0.380645 0.766852
1804 1 0.184197 0.0396894 0.559707
361 1 0.616472 0.258159 0.79295
980 1 0.77154 0.22479 0.59095
660 1 0.693741 0.124493 0.669515
996 1 0.0432857 0.0394936 0.865043
1168 1 0.357755 0.215136 0.642964
1383 1 0.828938 0.254207 0.625682
1915 1 0.143545 0.212057 0.749009
1846 1 0.409586 0.0613043 0.922567
523 1 0.614922 0.310252 0.625719
1251 1 0.49293 0.247018 0.731308
1021 1 0.532451 0.0457269 0.599577
332 1 0.749112 0.46407 0.524809
1191 1 0.718654 0.319783 0.693155
636 1 0.729927 0.405762 0.663439
66 1 0.125215 0.0729319 0.547239
382 1 0.245884 0.223907 0.66727
837 1 0.285702 0.441896 0.714079
173 1 0.889 0.28111 0.571644
487 1 0.413415 0.0255477 0.608103
1137 1 0.97887 0.257022 0.981505
407 1 0.360856 0.330058 0.651179
620 1 0.289558 0.0990346 0.906296
1209 1 0.947255 0.183537 0.971303
833 1 0.882791 0.443715 0.575045
790 1 0.847023 0.166692 0.617658
411 1 0.856552 0.0905093 0.615037
1837 1 0.630412 0.0525347 0.678122
532 1 0.481329 0.486851 0.676411
115 1 0.266898 0.0497436 0.650967
181 1 0.844991 0.157728 0.916938
1555 1 0.554942 0.162202 0.89672
11 1 0.54543 0.355644 0.844485
949 1 0.205794 0.0717848 0.671443
951 1 0.666043 0.126283 0.928197
1666 1 0.187756 0.102355 0.898857
813 1 0.116844 0.192756 0.55419
1730 1 0.330979 0.490465 0.610456
574 1 0.373155 0.215263 0.513496
271 1 0.479127 0.19289 0.926157
1925 1 0.785353 0.0765072 0.775643
1739 1 0.860773 0.437804 1.00114
471 1 0.588768 0.160627 0.99603
1471 1 0.416101 0.221995 0.579073
435 1 0.980525 0.488077 0.932253
849 1 0.767706 0.157834 0.676144
1164 1 0.441887 0.20285 0.646053
1996 1 0.677587 0.464599 0.52922
1058 1 0.856582 0.141313 0.776136
1770 1 0.344481 0.396579 0.516095
1721 1 0.375099 0.237653 0.759146
932 1 0.275746 0.297128 0.617809
9 1 0.874328 0.034208 0.665236
1537 1 0.0102109 0.141533 0.571862
1156 1 0.233543 0.178036 0.527608
697 1 0.643501 0.368898 0.699847
801 1 0.559041 0.0753258 0.669304
240 1 0.99808 0.123375 0.771748
1792 1 0.866458 0.286033 0.716983
1622 1 0.386697 0.175541 0.709626
284 1 0.20384 0.369545 0.749074
548 1 0.0869377 0.104247 0.944618
1466 1 0.609223 0.355183 0.89665
82 1 0.474775 0.339352 0.540276
470 1 0.787846 0.320394 0.712533
1263 1 0.94105 0.236632 0.559095
1836 1 0.113845 0.437483 0.945594
1970 1 0.304238 0.199436 0.787478
2028 1 0.422982 0.280733 0.732689
1654 1 0.502177 0.337288 0.927998
853 1 0.492549 0.341173 0.709716
287 1 0.527819 0.136889 0.59764
650 1 0.896442 0.165367 0.863658
1399 1 0.876192 0.315887 0.636372
916 1 0.627884 0.27964 0.509699
1035 1 0.892461 0.253402 0.801899
34 1 0.300951 0.250379 0.502577
238 1 0.961101 0.465822 0.557645
132 1 0.122798 0.362342 0.968796
1795 1 0.442785 0.340827 0.636363
221 1 0.126658 0.407455 0.775754
685 1 0.937183 0.209813 0.765179
1665 1 0.711871 0.189648 0.6339
404 1 0.802335 0.470368 0.975255
1643 1 0.932387 0.389729 0.774865
291 1 0.395663 0.151888 0.537413
52 1 0.698043 0.0483317 0.702926
1113 1 0.1578 0.0870108 0.624198
1362 1 0.309512 0.186897 0.715725
1010 1 0.675605 0.0298673 0.959939
1366 1 0.499561 0.0305769 0.715369
285 1 0.7099 0.284596 0.565071
586 1 0.243484 0.0843296 0.855369
1128 1 0.912229 0.384328 0.647126
275 1 0.157414 0.256927 0.552532
1953 1 0.532385 0.13802 0.82686
519 1 0.858344 0.346957 0.566122
309 1 0.889118 0.0351376 0.877767
1909 1 0.581781 0.38777 0.94752
186 1 0.774313 0.0684115 0.646891
1264 1 0.782308 0.150693 0.759962
1322 1 0.0194441 0.109954 0.906206
913 1 0.49274 0.190023 0.566704
918 1 0.0291625 0.464258 0.588308
180 1 0.061115 0.218583 0.681965
1651 1 0.645027 0.348528 0.778502
1526 1 0.103028 0.0953141 0.730466
1470 1 0.992853 0.38905 0.628351
850 1 0.273679 0.399215 0.612758
622 1 0.524208 0.264169 0.813941
1631 1 0.671243 0.168347 0.860558
1756 1 0.542968 0.192091 0.686666
336 1 0.7714 0.292451 0.622443
1829 1 0.147239 0.367376 0.705421
888 1 0.17299 0.0699405 0.740431
791 1 0.574144 0.252997 0.654009
41 1 0.828534 0.453662 0.633069
1026 1 0.731283 0.307315 0.779277
1204 1 0.762851 0.466055 0.774068
340 1 0.0786724 0.229765 0.780136
777 1 0.659857 0.444496 0.799045
388 1 0.808991 0.21488 0.771954
638 1 0.682143 0.468872 0.870766
2037 1 0.0840176 0.47216 0.712658
145 1 0.927255 0.115567 0.929255
1516 1 0.408499 0.461309 0.589803
1071 1 0.159554 0.0381984 0.942133
1198 1 0.141217 0.326728 0.557702
26 1 0.370676 0.410038 0.851991
841 1 0.577802 0.405233 0.600639
1714 1 0.878471 0.371868 0.97502
1903 1 0.797163 0.285249 0.780809
857 1 0.430147 0.125421 0.982319
874 1 0.00405584 0.413992 0.540253
1315 1 0.664219 0.328038 0.958642
418 1 0.45189 0.132225 0.828839
1414 1 0.878014 0.443944 0.722303
1385 1 0.736031 0.339041 0.917023
165 1 0.984157 0.10705 0.631036
1481 1 0.405985 0.172569 0.90781
1598 1 0.553144 0.470025 0.561121
319 1 0.606081 0.0122241 0.755067
1400 1 0.981584 0.158687 0.846331
1889 1 0.337502 0.4885 0.842636
1342 1 0.565623 0.251552 0.733012
858 1 0.418425 0.109418 0.687715
1565 1 0.74181 0.444157 0.948567
895 1 0.172995 0.133828 0.676374
1372 1 0.109588 0.28587 0.731722
561 1 0.329255 0.271585 0.685366
1522 1 0.310958 0.165123 0.864816
28 1 0.44271 0.0536322 0.538509
1657 1 0.63561 0.302273 0.724938
1954 1 0.916807 0.129924 0.723585
1854 1 0.147209 0.0359418 0.683598
1842 1 0.997508 0.292337 0.778753
845 1 0.2187 0.046715 0.792335
1201 1 0.312652 0.0503017 0.787195
1311 1 0.659642 0.22581 0.954213
143 1 0.349951 0.0185621 0.656422
1918 1 0.995886 0.236973 0.707745
1697 1 0.554641 0.143642 0.532626
1866 1 0.5402 0.140392 0.736403
535 1 0.784357 0.37033 0.768365
119 1 0.996644 0.162654 0.683966
1670 1 0.865465 0.373447 0.71403
447 1 0.150756 0.343818 0.802932
1893 1 0.0589886 0.284621 0.648714
1616 1 0.17326 0.145892 0.831467
1420 1 0.405907 0.22298 0.954195
1869 1 0.690603 0.250353 0.825809
357 1 0.853037 0.155847 0.69593
1073 1 0.206921 0.433991 0.692689
1254 1 0.954842 0.28937 0.876223
1237 1 0.819662 0.0839619 0.52018
1493 1 0.380025 0.362776 0.925089
635 1 0.0786694 0.359624 0.761769
1131 1 0.253301 0.274228 0.938131
690 1 0.724741 0.382474 0.735176
1962 1 0.620316 0.241333 0.889638
2000 1 0.891931 0.320805 0.784128
1124 1 0.471224 0.0259916 0.900658
1556 1 0.857255 0.175703 0.988619
1896 1 0.376738 0.428939 0.726449
370 1 0.983747 0.220217 0.902175
1473 1 0.481459 0.091316 0.583064
2041 1 0.423585 0.301259 0.93653
588 1 0.757869 0.127698 0.526788
389 1 0.0907896 0.026106 0.912401
1098 1 0.0566635 0.352909 0.674212
185 1 0.816726 0.498933 0.727729
1814 1 0.374682 0.0146308 0.990084
525 1 0.790368 0.028383 0.94925
776 1 0.926722 0.14915 0.800961
1398 1 0.405784 0.202626 0.844215
2019 1 0.286769 0.122286 0.674826
267 1 0.134079 0.449765 0.588017
1979 1 0.183716 0.193189 0.597023
870 1 0.185311 0.225075 0.803467
605 1 0.0746194 0.1588 0.73194
113 1 0.354945 0.10283 0.959778
232 1 0.859698 0.0171251 0.942644
1355 1 0.86352 0.0968348 0.98655
677 1 0.834387 0.0303606 0.818259
494 1 0.256045 0.0533725 0.724767
138 1 0.246084 0.143307 0.796241
976 1 0.450215 0.241706 0.803504
1303 1 0.342127 0.108814 0.631793
1511 1 0.58349 0.207055 0.837144
1780 1 0.0132104 0.0390434 0.788303
427 1 0.223371 0.227149 0.736875
104 1 0.23695 0.165373 0.866605
191 1 0.537782 0.199904 0.775046
1334 1 0.323371 0.0377497 0.859306
920 1 0.597678 0.439531 0.859531
795 1 0.987545 0.02626 0.943658
1180 1 0.0394532 0.177953 0.880925
950 1 0.0681841 0.375884 0.867045
624 1 0.146347 0.224631 0.666623
593 1 0.0145479 0.071747 0.571843
358 1 0.656084 0.0731466 0.879608
1240 1 0.489384 0.123941 0.941577
478 1 0.0598691 0.0273024 0.715065
506 1 0.795356 0.380355 0.980924
372 1 0.0125099 0.309518 0.525268
1314 1 0.227127 0.15909 0.71081
1702 1 0.418419 0.343505 0.782924
1141 1 0.64621 0.386118 0.847149
316 1 0.850451 0.0845812 0.723145
401 1 0.698241 0.00133871 0.812223
400 1 0.0159311 0.376429 0.796673
575 1 0.404093 0.476655 0.817612
1118 1 0.543915 0.314753 0.652997
1572 1 0.744481 0.413239 0.818443
339 1 0.959778 0.35254 0.845537
1353 1 0.66675 0.0673459 0.525488
1070 1 0.192022 0.292058 0.772485
1961 1 0.584407 0.232914 0.96846
1476 1 0.157375 0.272504 0.926953
24 1 0.347028 0.341436 0.814189
783 1 0.0889219 0.120153 0.854916
1244 1 0.61611 0.0408165 0.9265
1091 1 0.0735004 0.453264 0.528849
1067 1 0.508213 0.41694 0.896575
764 1 0.86588 0.289062 0.95019
1087 1 0.773282 0.0217658 0.857197
1787 1 0.304812 0.27166 0.801112
979 1 0.247165 0.118144 0.613023
1083 1 0.768643 0.111271 0.879928
1115 1 0.136191 0.155922 0.97558
1864 1 0.460942 0.249178 0.524566
162 1 0.832495 0.480585 0.504817
571 1 0.480018 0.10147 0.721025
237 1 0.337042 0.340229 0.970405
1920 1 0.508796 0.259148 0.954985
1620 1 0.362135 0.119506 0.884921
2025 1 0.721176 0.072431 0.802593
1245 1 0.681591 0.443661 0.613677
1627 1 0.939664 0.323595 0.945646