ITEM: TIMESTEP
100000
ITEM: NUMBER OF ATOMS
2048
ITEM: BOX BOUNDS pp pp pp
0.0000000000000000e+00 1.2302095357258066e+01
0.0000000000000000e+00 1.2302095357258066e+01
0.0000000000000000e+00 1.2302095357258066e+01
ITEM: ATOMS id type xs ys zs
876 1 0.0919592 0.719605 0.149758
916 1 0.158807 0.93904 0.0557932
1419 1 0.443973 0.933161 0.0485458
159 1 0.0149199 0.122441 0.00977154
1765 1 0.17621 0.413902 0.480077
1276 1 0.0183533 0.305857 0.481625
1668 1 0.416231 0.610644 0.418282
546 1 0.0877379 0.221895 0.204081
1363 1 0.309026 0.0944306 0.0667003
1296 1 0.27043 0.961424 0.497012
218 1 0.204781 0.224475 0.00548355
534 1 0.00838578 0.149236 0.0847957
1191 1 0.439289 0.31696 0.127942
1938 1 0.0960897 0.343432 0.463155
983 1 0.0222329 0.995179 0.412011
714 1 0.0635943 0.0542501 0.361972
1952 1 0.26657 0.964892 0.41284
1320 1 0.488792 0.486039 0.343741
1028 1 0.444749 0.891546 0.178149
1919 1 0.349401 0.44381 0.0897469
659 1 0.0605467 0.567584 0.451709
102 1 0.375957 0.930032 0.199279
1082 1 0.455026 0.174477 0.107171
722 1 0.0309409 0.371211 0.2028
308 1 0.482995 0.395253 0.311537
537 1 0.18502 0.737439 0.129694
225 1 0.462528 0.900007 0.372881
1817 1 0.0373544 0.602934 0.286048
1981 1 0.471338 0.41577 0.153298
342 1 0.185733 0.995672 0.440768
1839 1 0.115601 0.0874706 0.0305968
285 1 0.120251 0.402659 0.0606793
1037 1 0.288422 0.161364 0.11026
1488 1 0.500352 0.660685 0.0765322
361 1 0.0150931 0.993726 0.0675431
559 1 0.201574 0.841443 0.465484
500 1 0.0286338 0.829459 0.457865
984 1 0.113841 0.20716 0.459964
43 1 0.46547 0.237225 0.498986
1389 1 0.44397 0.0325114 0.128171
832 1 0.369932 0.69352 0.170223
962 1 0.47874 0.645579 0.356365
1941 1 0.254309 0.137603 0.480435
1369 1 0.396729 0.20435 0.47114
764 1 0.0601065 0.341348 0.0356003
838 1 0.346348 0.660522 0.032006
474 1 0.0576754 0.750354 0.076883
1406 1 0.0144594 0.0216076 0.154237
561 1 0.104234 0.894946 0.0303775
1800 1 0.401095 0.536763 0.330656
1786 1 0.0207866 0.936876 0.474947
1805 1 0.331475 0.802199 0.0822306
1858 1 0.0935005 0.0386642 0.0965433
948 1 0.124472 0.882775 0.100229
208 1 0.16807 0.487755 0.0194303
1345 1 0.151538 0.659538 0.00897099
761 1 0.114769 0.82067 0.0164915
1160 1 0.32712 0.184659 0.191386
692 1 0.220327 0.995691 0.0567582
1597 1 0.496405 0.0482534 0.413445
1113 1 0.273172 0.469708 0.08296
76 1 0.0592168 0.896769 0.410558
38 1 0.0122426 0.712278 0.133847
433 1 0.456921 0.1295 0.0402135
257 1 0.146145 0.0143815 0.0378687
1403 1 0.498369 0.321966 0.267605
424 1 0.0677974 0.653749 0.0293296
144 1 0.41073 0.68246 0.10255
772 1 0.139099 0.193975 0.0908078
874 1 0.286121 0.250662 0.164462
290 1 0.0755551 0.182808 0.0389253
1011 1 0.279332 0.230458 0.082629
693 1 0.292787 0.31463 0.297994
1362 1 0.399603 0.872887 0.0212567
2042 1 0.476111 0.216946 0.274711
928 1 0.317394 0.236692 0.0141359
234 1 0.0618551 0.251298 0.428587
1375 1 0.372839 0.354499 0.112272
635 1 0.426638 0.39874 0.0785746
1744 1 0.0780137 0.466496 0.0687334
458 1 0.292043 0.385184 0.0645411
1793 1 0.313931 0.0898367 0.490284
499 1 0.196314 0.498871 0.112265
456 1 0.265482 0.61671 0.139639
1484 1 0.398841 0.438873 0.15475
770 1 0.40964 0.497417 0.20884
1010 1 0.410813 0.32041 0.0493341
1762 1 0.45763 0.471389 0.0992483
829 1 0.0173448 0.476251 0.115583
359 1 0.480562 0.0276825 0.0613657
362 1 0.121366 0.519164 0.152658
393 1 0.450249 0.604652 0.113797
1968 1 0.253278 0.044453 0.0025867
1170 1 0.17669 0.571247 0.145175
994 1 0.396663 0.967807 0.479598
676 1 0.456276 0.745699 0.131035
1609 1 0.198567 0.641056 0.106134
1338 1 0.211748 0.718862 0.0557164
682 1 0.441053 0.657353 0.185946
1432 1 0.33048 0.149403 0.448463
1301 1 0.0523545 0.882683 0.137151
131 1 0.225941 0.344929 0.0899263
572 1 0.48972 0.926867 0.30759
1850 1 0.432083 0.871457 0.100973
675 1 0.35963 0.728965 0.0698261
354 1 0.450159 0.81536 0.167026
372 1 0.446964 0.769301 0.322085
335 1 0.0499858 0.742745 0.357455
653 1 0.0760354 0.953724 0.274298
304 1 0.279453 0.865595 0.113794
1531 1 0.367197 0.0242513 0.125667
941 1 0.0405058 0.190238 0.149361
1162 1 0.492884 0.489781 0.18631
1171 1 0.0682586 0.960238 0.142824
226 1 0.35063 0.884824 0.0848104
387 1 0.378084 0.965334 0.0677803
348 1 0.14699 0.00987348 0.195554
1749 1 0.395424 0.724718 0.483832
727 1 0.194886 0.0353893 0.122229
878 1 0.389037 0.298079 0.481268
213 1 0.283891 0.743522 0.0330117
2020 1 0.15718 0.118271 0.118708
1796 1 0.327052 0.0185451 0.0478361
1469 1 0.24737 0.208854 0.442336
581 1 0.0711549 0.120118 0.11921
1268 1 0.22514 0.115096 0.0534168
1682 1 0.404238 0.224257 0.20321
427 1 0.485772 0.293213 0.416515
1411 1 0.213742 0.184087 0.0816289
1905 1 0.249717 0.0896714 0.12016
1697 1 0.39754 0.201582 0.0572196
52 1 0.262327 0.318369 0.217898
301 1 0.372381 0.289294 0.172313
2024 1 0.253721 0.29687 0.0257492
1451 1 0.334819 0.350578 0.201918
1125 1 0.42007 0.243077 0.122724
344 1 0.0515984 0.790283 0.274649
395 1 0.146397 0.37743 0.174077
1079 1 0.362399 0.192016 0.124697
1680 1 0.0567575 0.404608 0.131586
1745 1 0.087814 0.373341 0.253127
1176 1 0.29489 0.323315 0.124188
1039 1 0.259783 0.48081 0.163827
981 1 0.385578 0.420306 0.235396
957 1 0.043768 0.572946 0.0904058
927 1 0.0468946 0.529465 0.178283
170 1 0.124612 0.612468 0.0823686
1669 1 0.345638 0.494999 0.156563
1283 1 0.428746 0.176884 0.339025
1692 1 0.496214 0.87429 0.234943
130 1 0.478978 0.855992 0.0391798
1118 1 0.266148 0.545535 0.11106
1975 1 0.381693 0.566102 0.0345894
184 1 0.437186 0.564419 0.184682
1168 1 0.398727 0.562394 0.258327
1808 1 0.470285 0.696394 0.26857
1427 1 0.136222 0.689456 0.0915821
104 1 0.265823 0.66897 0.0795919
451 1 0.401958 0.540209 0.115672
1482 1 0.437151 0.734742 0.207898
1033 1 0.324261 0.466316 0.0198417
1300 1 0.115266 0.793111 0.114832
562 1 0.235104 0.762447 0.180383
1883 1 0.172175 0.801966 0.0624306
149 1 0.265784 0.822123 0.0185071
950 1 0.0149357 0.106518 0.399224
1116 1 0.200975 0.897592 0.157026
1355 1 0.0256938 0.805503 0.127257
1852 1 0.19116 0.949296 0.220406
827 1 0.326837 0.998023 0.19172
931 1 0.378576 0.854094 0.162843
442 1 0.291806 0.933191 0.050735
152 1 0.0375614 0.917484 0.206105
1193 1 0.150843 0.967139 0.12901
317 1 0.0959201 0.711518 0.491763
558 1 0.199005 0.416211 0.0589911
1591 1 0.0206114 0.0959075 0.185114
158 1 0.157825 0.0984002 0.260923
686 1 0.334052 0.107689 0.151966
639 1 0.0745813 0.043657 0.286228
803 1 0.0946274 0.0782505 0.180108
1492 1 0.186238 0.0924863 0.186709
2022 1 0.314761 0.128508 0.248275
869 1 0.409794 0.135783 0.155158
616 1 0.197046 0.265036 0.0984378
1205 1 0.204904 0.320759 0.161956
1295 1 0.221318 0.211383 0.153086
842 1 0.292562 0.235322 0.30891
1498 1 0.245129 0.143147 0.182251
1851 1 0.128718 0.263557 0.0589432
1552 1 0.250754 0.23816 0.237988
1912 1 0.367757 0.293776 0.328102
945 1 0.491477 0.0991946 0.133249
1734 1 0.472182 0.182553 0.197567
1115 1 0.22444 0.409125 0.138256
1359 1 0.383355 0.308376 0.251097
231 1 0.427349 0.364618 0.191494
1886 1 0.0486713 0.402475 0.488084
568 1 0.0482092 0.0375295 0.0143138
425 1 0.127775 0.444827 0.130509
1227 1 0.313296 0.460991 0.219474
1318 1 0.132259 0.332852 0.106091
969 1 0.301215 0.409479 0.139618
414 1 0.301554 0.394082 0.259303
281 1 0.370241 0.485194 0.271602
926 1 0.46429 0.0886874 0.204709
867 1 0.330607 0.575305 0.156114
1869 1 0.416591 0.611734 0.327485
678 1 0.483536 0.124559 0.395294
815 1 0.107222 0.594618 0.184124
501 1 0.16634 0.544937 0.230546
173 1 0.158403 0.665114 0.170565
251 1 0.310659 0.540215 0.235231
151 1 0.379563 0.619671 0.207139
1807 1 0.462541 0.611125 0.254821
2 1 0.0985191 0.721567 0.280783
1973 1 0.308569 0.655953 0.190839
853 1 0.246815 0.796983 0.0891278
1051 1 0.319452 0.233306 0.460759
297 1 0.186432 0.81895 0.151279
830 1 0.293517 0.731612 0.130853
377 1 0.463546 0.797709 0.249896
959 1 0.110038 0.449513 0.456049
1072 1 0.117733 0.848084 0.173432
528 1 0.251985 0.844332 0.181379
1967 1 0.310734 0.796224 0.16672
1706 1 0.0802469 0.871907 0.279747
933 1 0.11425 0.931787 0.208873
1354 1 0.159635 0.873375 0.233103
1508 1 0.386942 0.791305 0.234455
203 1 0.344759 0.860183 0.23702
1495 1 0.28835 0.0209879 0.112492
1321 1 0.249561 0.944488 0.115075
1779 1 0.156781 0.199313 0.316682
1921 1 0.086725 0.964936 0.0631302
1660 1 0.222618 0.998166 0.285468
268 1 0.483467 0.975028 0.200511
888 1 0.194472 0.00201469 0.358998
1900 1 0.30737 0.900164 0.389989
826 1 0.0799748 0.579633 0.0247201
1209 1 0.374624 0.399021 0.0169282
1775 1 0.412338 0.0140875 0.204953
919 1 0.068173 0.00715052 0.209049
1892 1 0.17919 0.17129 0.246283
188 1 0.43879 0.0629279 0.275335
1603 1 0.479374 0.404836 0.480466
475 1 0.296159 0.0495023 0.28365
967 1 0.332516 0.250448 0.236549
1383 1 0.452663 0.285113 0.209024
1923 1 0.0656238 0.140889 0.243315
1161 1 0.265325 0.155913 0.30878
1761 1 0.184985 0.333735 0.0272526
1021 1 0.150354 0.432527 0.240224
847 1 0.21769 0.394747 0.220073
1006 1 0.2334 0.421586 0.288846
1041 1 0.31094 0.41608 0.351655
702 1 0.433622 0.33742 0.320703
1152 1 0.0653987 0.4429 0.204778
1544 1 0.366368 0.372705 0.296327
1133 1 0.40451 0.441883 0.338174
855 1 0.0863512 0.548314 0.243383
1934 1 0.245355 0.558167 0.187116
1449 1 0.244595 0.489462 0.24844
1014 1 0.369471 0.616095 0.0993131
691 1 0.333179 0.563088 0.305255
1601 1 0.236429 0.686826 0.159343
75 1 0.0691193 0.638634 0.131351
1922 1 0.239324 0.706613 0.237165
644 1 0.384524 0.774356 0.156596
498 1 0.391989 0.683099 0.253781
32 1 0.112791 0.890839 0.350998
1937 1 0.205733 0.806276 0.240459
1530 1 0.452674 0.0772168 0.471611
1334 1 0.126478 0.798878 0.25497
180 1 0.298313 0.602054 0.0568573
401 1 0.426576 0.953176 0.132361
367 1 0.220467 0.667608 0.300147
896 1 0.302285 0.905068 0.1844
138 1 0.41476 0.850404 0.284428
250 1 0.115761 0.976874 0.345118
1630 1 0.174057 0.845176 0.302477
1407 1 0.333371 0.854235 0.310178
493 1 0.240082 0.995476 0.175801
450 1 0.319842 0.325871 0.460244
1430 1 0.0161044 0.0025489 0.314693
1944 1 0.369388 0.0170489 0.269024
153 1 0.382443 0.863639 0.492773
1506 1 0.0166791 0.462886 0.355061
652 1 0.14454 0.00576174 0.270904
1584 1 0.233906 0.0893186 0.254601
103 1 0.111124 0.125559 0.319831
1995 1 0.276226 0.0706391 0.194011
1970 1 0.438554 0.0656536 0.361677
877 1 0.131757 0.152519 0.181288
1814 1 0.0797726 0.203749 0.286909
1388 1 0.30812 0.102912 0.343052
640 1 0.400881 0.239295 0.285118
837 1 0.493143 0.847635 0.307748
1234 1 0.161495 0.334442 0.23798
1585 1 0.0609756 0.257267 0.016148
1709 1 0.196579 0.260758 0.290752
723 1 0.455309 0.256204 0.342329
411 1 0.35068 0.177261 0.31776
1325 1 0.0646916 0.248155 0.0955927
839 1 0.0172906 0.419612 0.267236
1220 1 0.216627 0.343931 0.292938
1616 1 0.377226 0.283119 0.405071
538 1 0.384957 0.0913482 0.0878516
1089 1 0.160803 0.158001 0.0275907
1573 1 0.130719 0.254861 0.144529
1606 1 0.470171 0.989547 0.490552
369 1 0.162688 0.496614 0.29497
816 1 0.310712 0.493167 0.320851
463 1 0.183259 0.48201 0.1898
1548 1 0.0753635 0.416488 0.333891
1702 1 0.472498 0.414511 0.232748
90 1 0.0289606 0.601754 0.209407
938 1 0.285654 0.468143 0.409945
599 1 0.0964997 0.545102 0.31995
2036 1 0.256996 0.554947 0.286088
608 1 0.495281 0.563586 0.318047
1896 1 0.159134 0.622591 0.236125
380 1 0.131046 0.589639 0.40894
204 1 0.143613 0.759628 0.19146
1787 1 0.277084 0.548264 0.376157
1173 1 0.323868 0.631952 0.265354
861 1 0.409542 0.699259 0.357735
1596 1 0.114039 0.786321 0.337909
901 1 0.241256 0.623985 0.233158
1404 1 0.263643 0.616424 0.331838
382 1 0.290263 0.696504 0.296102
136 1 0.414409 0.793427 0.0807937
1993 1 0.162052 0.69822 0.241445
1244 1 0.318205 0.730715 0.229923
235 1 0.409855 0.8111 0.375979
1501 1 0.235186 0.301508 0.441901
443 1 0.184226 0.796747 0.37863
1723 1 0.27544 0.755047 0.363303
597 1 0.283154 0.800999 0.244146
1464 1 0.475598 0.734112 0.486384
1832 1 0.392199 0.915388 0.332051
1394 1 0.129464 0.947534 0.41792
1809 1 0.306162 0.756721 0.439099
1386 1 0.032678 0.262976 0.255147
1486 1 0.33416 0.944058 0.285715
1988 1 0.166788 0.930119 0.305111
1513 1 0.241984 0.889051 0.245013
1902 1 0.192408 0.0730607 0.403535
42 1 0.291369 0.987241 0.338141
280 1 0.429118 0.982661 0.305373
1392 1 0.146696 0.0589041 0.331771
1130 1 0.186475 0.135884 0.349374
1075 1 0.318231 0.0126003 0.454299
1042 1 0.00718465 0.684495 0.206358
1774 1 0.384226 0.0934591 0.22956
1018 1 0.052481 0.158982 0.463793
1078 1 0.0326114 0.131301 0.330455
651 1 0.164535 0.247367 0.225203
1623 1 0.176274 0.18277 0.411771
1150 1 0.386548 0.110812 0.326375
1565 1 0.476485 0.559585 0.495274
246 1 0.452047 0.822033 0.446878
1598 1 0.167389 0.419837 0.327907
2014 1 0.404584 0.378134 0.479272
373 1 0.131278 0.35024 0.315533
1555 1 0.459239 0.367676 0.410523
718 1 0.222279 0.299509 0.360976
462 1 0.36305 0.489972 0.392321
1426 1 0.332685 0.523097 0.0775961
363 1 0.193394 0.459205 0.401118
1186 1 0.38889 0.371663 0.385729
54 1 0.328946 0.317361 0.0403316
459 1 0.0704748 0.517432 0.39178
1211 1 0.183168 0.567123 0.305886
560 1 0.338235 0.540586 0.451917
339 1 0.394373 0.582065 0.49321
985 1 0.230131 0.485908 0.334827
1520 1 0.347001 0.656322 0.341597
1443 1 0.0868792 0.670648 0.211301
762 1 0.141013 0.51988 0.430287
274 1 0.132391 0.481349 0.361006
996 1 0.0473844 0.666688 0.354597
1122 1 0.193599 0.550311 0.381892
1094 1 0.364495 0.680475 0.418531
1870 1 0.393903 0.891658 0.410131
513 1 0.451654 0.67655 0.434112
1581 1 0.203623 0.713908 0.369667
698 1 0.156497 0.661547 0.44447
953 1 0.396512 0.485098 0.0433256
1239 1 0.357965 0.779163 0.30596
20 1 0.35295 0.749654 0.376667
237 1 0.239291 0.680073 0.451642
384 1 0.330037 0.823445 0.392056
117 1 0.139457 0.746665 0.015452
275 1 0.12842 0.874245 0.446478
1694 1 0.201067 0.752881 0.29628
1917 1 0.435815 0.923263 0.252338
822 1 0.0808008 0.998226 0.461441
1194 1 0.250973 0.817952 0.313048
2028 1 0.109072 0.127407 0.407775
1027 1 0.236404 0.854967 0.383386
343 1 0.238393 0.0737279 0.327419
669 1 0.327272 0.951791 0.129503
645 1 0.432455 0.973964 0.383632
1128 1 0.0160222 0.261205 0.17221
679 1 0.00760132 0.185103 0.40669
1281 1 0.264458 0.0362578 0.393077
1621 1 0.387817 0.126794 0.497019
1998 1 0.182582 0.122653 0.461402
1732 1 0.249027 0.123755 0.404353
1620 1 0.372827 0.0243629 0.350985
543 1 0.105503 0.208814 0.37509
654 1 0.0427117 0.245494 0.340443
259 1 0.29804 0.347922 0.380887
1710 1 0.291842 0.187994 0.38152
1180 1 0.0858883 0.309336 0.377434
555 1 0.479233 0.566914 0.397343
1831 1 0.293869 0.270296 0.391144
467 1 0.373625 0.206136 0.39346
1143 1 0.407135 0.134297 0.422942
1901 1 0.117864 0.273262 0.283848
760 1 0.255907 0.377748 0.470827
1346 1 0.425711 0.437946 0.415974
1704 1 0.0613917 0.316083 0.128616
1676 1 0.084584 0.306004 0.211016
1946 1 0.475937 0.123728 0.299566
1336 1 0.0448094 0.386908 0.410599
1410 1 0.358253 0.465717 0.474898
1589 1 0.234725 0.392278 0.380321
573 1 0.425404 0.512969 0.451171
813 1 0.021752 0.0652451 0.0915773
1627 1 0.285205 0.167593 0.0305349
940 1 0.055167 0.819852 0.383389
1393 1 0.00669882 0.536827 0.335845
1956 1 0.045197 0.592503 0.371745
1695 1 0.0103453 0.800956 0.026395
858 1 0.219035 0.522079 0.451108
824 1 0.203001 0.879925 0.0742394
121 1 0.175532 0.912871 0.497144
647 1 0.301499 0.61823 0.432532
1131 1 0.351707 0.580806 0.377675
1989 1 0.0741946 0.675345 0.42568
2045 1 0.130296 0.735908 0.402286
1483 1 0.494145 0.478847 0.269039
1770 1 0.0783851 0.636338 0.493021
889 1 0.283308 0.680311 0.375417
1740 1 0.378285 0.79714 0.448141
1036 1 0.439571 0.750081 0.406767
1292 1 0.052388 0.756446 0.43969
321 1 0.126714 0.667369 0.358346
1415 1 0.029136 0.928853 0.343174
143 1 0.212791 0.766482 0.449257
81 1 0.0632436 0.766552 0.20354
920 1 0.0369664 0.838602 0.201075
1798 1 0.123578 0.0390054 0.407788
273 1 0.24874 0.901164 0.45285
521 1 0.308654 0.847793 0.474764
8 1 0.354741 0.965101 0.398569
660 1 0.135502 0.798325 0.450119
1999 1 0.203974 0.924834 0.382916
677 1 0.204359 0.562109 0.0632993
925 1 0.267839 0.90436 0.322519
1434 1 0.0062275 0.0428354 0.250395
800 1 0.273763 0.964189 0.239834
685 1 0.396161 0.0327158 0.435279
912 1 0.0207368 0.913764 0.0455882
55 1 0.461675 0.252281 0.044953
207 1 0.419144 0.0517201 0.0165175
1285 1 0.128475 0.532718 0.0730446
307 1 0.159333 0.274877 0.411647
1421 1 0.412566 0.163746 0.257726
687 1 0.335957 0.924193 0.465368
1907 1 0.221251 0.218506 0.357511
1066 1 0.329127 0.0785589 0.41035
1462 1 0.447056 0.223176 0.41135
1254 1 0.0576745 0.84543 0.0697776
1471 1 0.174599 0.351184 0.416246
1914 1 -0.000431115 0.203547 0.299033
1091 1 0.0686457 0.0744864 0.448594
633 1 0.0105374 0.524808 0.255847
1333 1 0.121114 0.406161 0.39657
535 1 0.460816 0.912704 0.478041
1206 1 0.0404791 0.325335 0.313007
780 1 0.469682 0.446706 0.0315547
1112 1 0.332485 0.399723 0.430879
1714 1 0.0317894 0.461078 0.435641
1448 1 0.456926 0.537044 0.0500613
1142 1 0.355516 0.274461 0.0989518
2039 1 0.241727 0.0486056 0.469083
1282 1 0.0884934 0.471776 0.278486
690 1 0.129492 0.063804 0.493714
778 1 0.478089 0.733529 0.0509826
509 1 0.104141 0.639519 0.288739
402 1 0.270688 0.674994 -0.000369417
580 1 0.488408 0.80505 0.37835
1450 1 0.214762 0.603556 0.444784
194 1 0.253462 0.509617 0.0241408
848 1 0.19313 0.629958 0.371797
1945 1 0.430288 0.631368 0.0339749
1315 1 0.174922 0.244572 0.484002
238 1 0.501251 0.54213 0.117068
1343 1 0.166865 0.326457 0.493428
696 1 0.46534 0.319907 0.488027
1273 1 0.261299 0.424253 0.00133656
1628 1 0.00144359 0.619471 0.456534
1524 1 0.0232084 0.706992 0.285653
1253 1 0.495538 0.246829 0.126712
808 1 0.00914957 0.301726 0.386887
449 1 0.225368 0.610165 0.00670939
487 1 0.0216742 0.224165 0.498457
1308 1 0.238639 0.453874 0.50845
965 1 0.144201 0.418726 0.816526
1818 1 0.100048 0.843151 0.870889
27 1 0.239777 0.128227 0.852921
1833 1 0.0189502 0.0258882 0.697172
1733 1 0.020129 0.0840082 0.506912
1819 1 0.345929 0.0557766 0.580876
1915 1 0.0617416 0.0213914 0.5378
1187 1 0.389509 0.194715 0.917931
1270 1 0.466341 0.878466 0.956549
1801 1 0.248618 0.278287 0.941395
1920 1 0.014786 0.847667 0.886319
431 1 0.484147 0.52021 0.937805
836 1 0.12978 0.300675 0.577267
1950 1 0.493375 0.892071 0.728938
1098 1 0.077363 0.533859 0.60735
885 1 0.266193 0.78926 0.508578
1199 1 0.0145791 0.0584166 0.597959
388 1 0.116718 0.718418 0.945698
820 1 0.354599 0.239501 0.85947
1865 1 0.183965 0.558884 0.566717
1242 1 0.156685 0.509086 0.619956
798 1 0.0907795 0.285386 0.728548
1000 1 0.0688179 0.0645894 0.916801
1083 1 0.375922 0.524766 0.538869
1070 1 0.309286 0.909854 0.546378
797 1 0.448102 0.595911 0.960772
386 1 -0.000450199 0.580531 0.646716
148 1 0.420656 0.432876 0.648362
113 1 0.307237 0.0221194 0.944277
1872 1 0.464458 0.228367 0.896888
2040 1 0.0637175 0.575445 0.693532
15 1 0.295859 0.657463 0.569383
1459 1 0.218107 0.788108 0.574966
531 1 0.2701 0.765788 0.959116
624 1 0.0963624 0.208429 0.908702
569 1 0.431293 0.716139 0.55019
1646 1 0.337801 0.828034 0.928385
1678 1 0.160652 0.750921 0.506858
1741 1 0.267571 0.731526 0.608825
884 1 0.0352386 0.882771 0.968407
1670 1 0.23753 0.870765 0.526805
1330 1 0.287192 0.352734 0.97981
351 1 0.011991 0.798273 0.825592
821 1 0.435357 0.78992 0.523033
589 1 0.040007 0.301717 0.788432
84 1 0.316408 0.849956 0.659752
316 1 0.124198 0.963605 0.532736
1847 1 0.157408 0.879948 0.598638
863 1 0.0733427 0.777528 0.612653
334 1 0.44037 0.855812 0.565677
1331 1 0.0456513 0.226939 0.757141
545 1 0.20898 0.0869837 0.531121
255 1 0.275025 0.0391203 0.623126
713 1 0.347359 0.996882 0.534666
1438 1 0.239267 0.203203 0.920367
773 1 0.0781703 0.999659 0.610259
514 1 0.0765321 0.0944801 0.559154
67 1 0.413768 0.00885359 0.608577
1559 1 0.036463 0.416064 0.910527
1103 1 0.194546 0.178175 0.519194
1500 1 0.238817 0.112509 0.600391
14 1 0.498039 0.0282086 0.68096
522 1 0.13415 0.219629 0.547316
482 1 0.13517 0.142806 0.695892
1188 1 0.295394 0.802981 0.585951
1724 1 0.437617 0.561157 0.83102
1604 1 0.451615 0.0859606 0.639698
769 1 0.181153 0.0933994 0.981494
786 1 0.255567 0.193105 0.614065
1903 1 0.493456 0.487049 0.523418
45 1 0.163867 0.363097 0.606825
793 1 0.474116 0.156778 0.841572
860 1 0.456642 0.946686 0.907651
510 1 0.113093 0.893229 0.942198
328 1 0.0205691 0.812096 0.744641
1830 1 0.327569 0.389066 0.506305
1226 1 0.242383 0.312393 0.605065
735 1 0.130417 0.218182 0.978203
1608 1 0.173744 0.666054 0.797158
2033 1 0.115809 0.148187 0.511035
1479 1 0.136763 0.437347 0.633659
1977 1 0.330845 0.236793 0.559895
1918 1 0.32706 0.365738 0.615405
730 1 0.422475 0.284181 0.553723
195 1 0.36864 0.430569 0.588729
1340 1 0.0116389 0.973773 0.640336
1207 1 0.0376283 0.162093 0.549619
646 1 0.306476 0.484471 0.618206
1516 1 0.363079 0.576038 0.597724
1398 1 0.446753 0.543445 0.574651
422 1 0.151795 0.669294 0.523305
381 1 0.279361 0.576518 0.581587
245 1 0.463735 0.464531 0.591451
1319 1 0.0466087 0.653929 0.618843
65 1 0.413596 0.625531 0.559088
1223 1 0.445827 0.796875 0.997258
1551 1 0.474111 0.296411 0.611809
960 1 0.358996 0.853853 0.571899
988 1 0.149831 0.788743 0.625846
1329 1 0.187935 0.705126 0.594081
1899 1 0.248453 0.873501 0.610483
879 1 0.360738 0.727648 0.585931
688 1 0.237751 0.706081 0.532594
1405 1 0.353529 0.782768 0.9984
1595 1 0.310217 0.923978 0.687821
1860 1 0.363508 0.926182 0.612831
1275 1 0.0619052 0.260715 0.571389
364 1 0.2192 0.915998 0.676461
1759 1 0.294149 0.964425 0.604148
631 1 0.463797 0.830332 0.663196
299 1 0.00367784 0.131036 0.92338
1379 1 0.489861 0.983284 0.600151
1198 1 0.147765 0.0745754 0.642042
336 1 0.408663 0.0716964 0.710424
1025 1 0.16046 0.135221 0.578528
269 1 0.213278 0.178633 0.682067
1522 1 0.415855 0.125091 0.57208
556 1 0.0343963 0.220226 0.635883
1729 1 0.116403 0.228232 0.674253
998 1 0.338655 0.0423195 0.736156
1272 1 0.207729 0.28057 0.543614
1080 1 0.168248 0.293437 0.649701
971 1 0.243084 0.252003 0.661616
1541 1 0.0167022 0.313662 0.614578
1468 1 0.226437 0.947934 0.566697
293 1 0.0742841 0.426662 0.696295
1632 1 0.0870307 0.302816 0.647576
1815 1 0.184003 0.420925 0.699316
2043 1 0.385579 0.215827 0.712541
758 1 0.490503 0.084588 0.73215
1271 1 0.0735182 0.373328 0.845559
1373 1 0.290989 0.419294 0.571166
852 1 0.407599 0.361952 0.567634
1111 1 0.173765 0.43145 0.556342
302 1 0.40863 0.19927 0.551496
1478 1 0.479076 0.863828 0.877504
1472 1 0.317572 0.218129 0.940429
1626 1 0.252172 0.537483 0.651938
887 1 0.295641 0.412085 0.687773
744 1 0.384839 0.373074 0.701612
2005 1 0.426805 0.248666 0.65087
1897 1 0.091131 0.133952 0.953298
617 1 0.234546 0.6507 0.617706
29 1 0.229464 0.499441 0.587069
1891 1 0.0277753 0.654833 0.700222
939 1 0.469544 0.528826 0.654024
1799 1 0.397026 0.503951 0.626021
907 1 0.0305974 0.195413 0.971255
1048 1 0.148408 0.324795 0.822137
1067 1 0.105199 0.63679 0.668417
92 1 0.361381 0.653373 0.61472
1195 1 0.285634 0.605771 0.783614
1887 1 0.364868 0.617495 0.711543
404 1 0.111585 0.712139 0.582126
236 1 0.194735 0.846872 0.660836
895 1 0.449254 0.19138 0.990619
399 1 0.421951 0.607324 0.63875
1023 1 0.500057 0.222124 0.669015
1654 1 0.192309 0.731538 0.708136
315 1 0.295754 0.614394 0.653793
1599 1 0.395995 0.791937 0.605166
1123 1 0.117431 0.619564 0.581495
1165 1 0.0703548 0.921677 0.63247
1844 1 0.0309761 0.87271 0.691105
1341 1 0.246752 0.788727 0.667163
1154 1 0.255254 0.855968 0.71499
1138 1 0.0712394 0.955825 0.979098
2023 1 0.101887 0.846279 0.643971
314 1 0.0383665 0.950305 0.708441
1175 1 0.0104776 0.391859 0.775882
504 1 0.155575 0.957266 0.605794
909 1 0.200125 0.0224331 0.618292
588 1 0.342279 0.940152 0.753593
1442 1 0.0585955 0.728188 0.999767
593 1 0.0694422 0.0803218 0.651712
986 1 0.355283 0.0681415 0.655032
224 1 0.0635933 0.456372 0.616077
175 1 0.138019 0.0428816 0.573075
1228 1 0.437603 0.964638 0.67687
357 1 0.319541 0.15964 0.526975
636 1 0.466695 0.155397 0.503972
1772 1 0.433833 0.128335 0.78456
267 1 0.384589 0.139567 0.677001
668 1 0.293587 0.600997 0.508088
337 1 0.307051 0.128562 0.948997
140 1 0.397241 0.790023 0.847652
539 1 0.177708 0.202036 0.619253
610 1 0.318258 0.132453 0.60164
247 1 0.364008 0.201437 0.6228
191 1 0.346454 0.314052 0.550265
1224 1 0.341906 0.785102 0.518043
1065 1 0.0313734 0.503779 0.673522
1767 1 0.228087 0.420046 0.622619
1674 1 0.394831 0.407068 0.826784
1166 1 0.476198 0.78063 0.851888
96 1 0.1078 0.50043 0.681097
905 1 0.0698895 0.844418 0.799647
2026 1 0.398072 0.871937 0.667199
150 1 0.308673 0.456785 0.760604
1994 1 0.362726 0.48548 0.812882
1725 1 0.387537 0.436001 0.75507
1202 1 0.169153 0.583125 0.644619
1570 1 0.359508 0.470239 0.686921
1316 1 0.165866 0.82837 0.533911
356 1 0.337674 0.543758 0.666069
880 1 0.442217 0.589303 0.712941
108 1 0.458237 0.40163 0.719693
1221 1 0.113301 0.715588 0.658186
627 1 0.354576 0.532643 0.750345
1376 1 0.0263345 0.994471 0.922126
1225 1 0.100296 0.453799 0.536261
1425 1 0.176586 0.662641 0.668632
709 1 0.471796 0.0549032 0.564845
1685 1 0.148063 0.844767 0.801851
276 1 0.241621 0.664599 0.75452
1348 1 0.357691 0.723075 0.663347
16 1 0.450631 0.67789 0.616943
248 1 0.449196 0.170432 0.628826
2006 1 0.0221242 0.478586 0.97833
1304 1 0.268393 0.686972 0.680548
145 1 0.394216 0.802094 0.710205
2003 1 0.0679794 0.648077 0.943181
116 1 0.180274 0.900434 0.738475
1069 1 0.303427 0.889831 0.795387
911 1 0.39455 0.853229 0.798966
1132 1 0.0467636 0.0243241 0.792774
643 1 0.25072 0.944682 0.747961
1087 1 0.475819 0.907172 0.620788
2044 1 0.429125 0.00132954 0.855077
333 1 0.117147 0.0418652 0.764716
1868 1 0.374645 0.000823866 0.803891
340 1 0.344185 0.992347 0.656322
1777 1 0.0616172 0.243698 0.842569
710 1 0.25307 0.0727317 0.746898
1255 1 0.334937 0.12384 0.73287
576 1 0.0378091 0.103023 0.807717
782 1 0.200291 0.00772234 0.774007
217 1 0.496672 0.140447 0.574365
1102 1 0.0739804 0.76444 0.790322
1593 1 0.0681355 0.0970434 0.732327
776 1 0.32544 0.880711 0.990793
1636 1 0.0296686 0.719257 0.552592
1200 1 0.144722 0.191711 0.75333
1252 1 0.248382 0.311904 0.731807
883 1 0.461942 0.155971 0.705157
891 1 0.42153 0.463875 0.517993
2047 1 0.220687 0.352457 0.666497
1344 1 0.307498 0.25136 0.720475
1372 1 0.33751 0.187058 0.774012
492 1 0.463324 0.241645 0.74362
1684 1 0.127504 0.356929 0.694131
209 1 0.308318 0.330683 0.682289
781 1 0.444972 0.321422 0.709711
605 1 0.41472 0.334781 0.782427
1012 1 0.322531 0.537593 0.983141
155 1 0.483047 0.380033 0.556633
53 1 0.391314 0.313708 0.623813
1515 1 0.186908 0.535994 0.711384
36 1 0.177835 0.366605 0.768084
942 1 0.446827 0.480277 0.710474
1456 1 0.229824 0.60897 0.700522
1982 1 0.348722 0.959559 0.985493
1219 1 0.0118765 0.591271 0.783003
1617 1 0.281347 0.502729 0.818474
1418 1 0.287056 0.554632 0.721656
417 1 0.473081 0.614496 0.785628
703 1 0.430552 0.74604 0.665806
899 1 0.191365 0.00916685 0.523042
704 1 0.030332 0.952852 0.553122
1192 1 0.224282 0.793373 0.747551
1823 1 0.341776 0.642353 0.821523
266 1 0.495981 0.843771 0.506939
33 1 0.0795016 0.785008 0.704576
1666 1 0.33622 0.853078 0.732935
1696 1 0.476828 0.83946 0.798608
1101 1 0.09158 0.88262 0.735513
1049 1 0.222645 0.860975 0.7984
254 1 0.105243 0.886855 0.525315
1435 1 0.197992 0.941125 0.817531
1127 1 0.31131 0.777618 0.708104
564 1 0.0985147 0.019239 0.692505
1537 1 0.22847 0.154749 0.978907
1297 1 0.182164 0.983174 0.684896
31 1 0.36352 0.6024 0.960133
1503 1 0.355215 0.931168 0.840306
1638 1 0.23245 0.371196 0.547968
520 1 0.469058 0.772054 0.595502
1712 1 0.120695 0.373457 0.543108
441 1 0.268923 0.10717 0.670283
1397 1 0.446425 0.043215 0.919375
648 1 0.14224 0.247684 0.814735
1935 1 0.0813192 0.14169 0.876755
1545 1 0.301846 0.115839 0.802347
300 1 0.118873 0.120663 0.779771
736 1 0.192173 0.130422 0.75962
789 1 0.235878 0.0937824 0.932881
716 1 0.423652 0.219126 0.827687
1835 1 0.265018 0.155881 0.743526
2012 1 0.312649 0.336159 0.763845
1698 1 0.174186 0.228245 0.889217
330 1 0.169179 0.26793 0.726688
212 1 0.230639 0.222313 0.744704
1781 1 0.448008 0.300186 0.842647
1507 1 0.249162 0.481148 0.698304
41 1 0.373705 0.291428 0.698041
378 1 0.0858624 0.361691 0.765505
223 1 0.084788 0.378069 0.615271
729 1 0.316985 0.265897 0.634394
25 1 0.115423 0.548438 0.751343
1983 1 0.245589 0.397442 0.744593
1748 1 0.313705 0.395161 0.831547
470 1 0.471131 0.426962 0.888295
595 1 0.280712 0.629658 0.936304
253 1 0.0528022 0.801799 0.943747
352 1 0.166613 0.491583 0.778493
1648 1 0.00935367 0.582778 0.884226
1992 1 0.0446678 0.516687 0.7664
1437 1 0.422568 0.489192 0.871737
210 1 0.486639 0.54511 0.759983
64 1 0.366681 0.0568083 0.915468
494 1 0.211559 0.389441 0.872636
1843 1 0.153009 0.621217 0.735979
1976 1 0.415105 0.675401 0.69674
1607 1 0.0521403 0.851209 0.575353
638 1 0.0417353 0.689649 0.778294
1639 1 0.170601 0.744752 0.779382
596 1 0.363129 0.6582 0.510259
1178 1 0.314281 0.908924 0.912664
1550 1 0.153797 0.814032 0.723315
1236 1 0.328701 0.685615 0.730239
1717 1 0.276584 0.733469 0.766576
1671 1 0.36174 0.757366 0.765185
1953 1 0.0433127 0.922512 0.791242
1043 1 0.290751 0.781364 0.873537
452 1 0.420838 0.81196 0.923475
1307 1 0.303824 0.80873 0.802736
483 1 0.417566 0.909852 0.741341
1055 1 0.1709 0.710691 0.881091
1747 1 0.113572 0.953727 0.743265
1751 1 0.291523 0.00278204 0.783221
774 1 0.139451 0.918192 0.676467
88 1 0.0745274 0.177145 0.806754
1539 1 0.174483 0.0562708 0.715525
1813 1 0.27373 0.00317788 0.702961
1722 1 0.189874 0.0170837 0.863914
1144 1 0.163013 0.0772528 0.902553
1705 1 0.418812 0.0887188 0.860951
612 1 0.471506 0.056503 0.815282
946 1 0.281682 0.578708 0.875096
346 1 0.156536 0.169324 0.842194
430 1 0.224972 0.206671 0.833514
1190 1 0.176787 0.0838177 0.824261
566 1 0.302388 0.183156 0.675377
1864 1 0.309225 0.487661 0.540075
347 1 0.116163 0.282583 0.880473
777 1 0.141261 0.38951 0.914346
271 1 0.280305 0.25628 0.876123
1038 1 0.330784 0.315178 0.842259
634 1 0.283627 0.248098 0.797593
61 1 0.363161 0.277611 0.778633
345 1 0.250585 0.538195 0.519678
1738 1 0.179559 0.46003 0.877456
955 1 0.212373 0.283522 0.79512
135 1 0.275936 0.344396 0.892772
1153 1 0.475978 0.404141 0.814383
1339 1 0.0171417 0.490907 0.886866
119 1 0.253499 0.353992 0.813899
1005 1 0.398687 0.450141 0.958158
743 1 0.0218616 0.729828 0.714227
439 1 0.0760182 0.452823 0.848858
465 1 0.132646 0.516608 0.855348
1699 1 0.22166 0.45322 0.94468
1525 1 0.402608 0.526445 0.946317
951 1 0.11391 0.693087 0.741764