ITEM: TIMESTEP
100000
ITEM: NUMBER OF ATOMS
2048
ITEM: BOX BOUNDS pp pp pp
0.0000000000000000e+00 1.1093780389610155e+01
0.0000000000000000e+00 1.1093780389610155e+01
0.0000000000000000e+00 1.1093780389610155e+01
ITEM: ATOMS id type xs ys zs
1421 1 0.376161 0.495221 0.38116
12 1 0.244963 0.062971 0.0644778
62 1 0.937016 0.187365 0.00391711
512 1 0.876667 0.438234 0.439888
20 1 0.500568 0.0637824 0.0622822
34 1 0.062615 0.18625 -0.00186122
32 1 0.875449 0.0613817 0.061036
145 1 0.499582 -0.00147371 0.124267
582 1 0.183533 0.31129 0.49965
525 1 0.375687 0.000284336 0.4979
28 1 0.752628 0.0616979 0.0592715
4 1 0.996605 0.0615945 0.0618168
526 1 0.437751 0.0652419 0.498606
1439 1 0.93887 0.500608 0.438678
40 1 0.128286 0.188767 0.0682491
44 1 0.249123 0.190443 0.0598334
48 1 0.37299 0.182928 0.0594487
1171 1 0.56115 0.500781 0.18631
71 1 0.188364 0.252565 0.0620955
75 1 0.314761 0.248735 0.0577783
79 1 0.434789 0.250079 0.0608791
106 1 0.313204 0.4397 0.000766902
1311 1 0.93574 0.500497 0.312196
66 1 0.0590265 0.312806 0.00241222
159 1 0.933561 -0.00108992 0.186547
1411 1 0.0649706 0.495917 0.436594
14 1 0.437145 0.0600079 0.00113893
93 1 0.873746 0.251685 0.0031981
80 1 0.373592 0.313467 0.0623309
84 1 0.501568 0.315936 0.0635219
92 1 0.748394 0.312636 0.0655882
76 1 0.249276 0.31318 0.0597666
111 1 0.441404 0.375923 0.0620284
1295 1 0.440222 0.499805 0.312229
123 1 0.814811 0.3749 0.063586
385 1 0.999823 0.000550932 0.378459
103 1 0.184601 0.371834 0.0661166
112 1 0.375605 0.434433 0.0655131
389 1 0.123836 -0.0001009 0.372149
127 1 0.935019 0.370922 0.0624652
500 1 0.494627 0.439331 0.43955
104 1 0.120741 0.443034 0.0661183
1175 1 0.686007 0.496232 0.184501
157 1 0.872606 0.000835833 0.124911
265 1 0.254848 0.0017729 0.250902
1281 1 -0.00143974 0.496636 0.256146
614 1 0.189198 0.436802 0.498412
120 1 0.627666 0.439987 0.0615969
1413 1 0.126738 0.497302 0.371899
124 1 0.754215 0.439401 0.0640495
128 1 0.873756 0.43785 0.063888
100 1 0.00253722 0.438915 0.0639748
8 1 0.127795 0.0626873 0.0632198
492 1 0.250377 0.438345 0.438135
633 1 0.751706 0.371777 0.500067
1423 1 0.436311 0.50052 0.438288
507 1 0.815825 0.375867 0.43921
508 1 0.753578 0.433971 0.434566
65 1 -0.000800208 0.247451 0.00382647
35 1 0.0668215 0.128567 0.062828
39 1 0.185572 0.125294 0.066123
16 1 0.374077 0.0661033 0.0630355
47 1 0.435743 0.122174 0.0619491
51 1 0.568463 0.120877 0.0594492
24 1 0.629991 0.0622284 0.0603441
55 1 0.689943 0.121939 0.0624725
59 1 0.812152 0.124999 0.0609679
154 1 0.810705 0.0606111 0.124249
189 1 0.872231 0.127655 0.125058
63 1 0.938223 0.122067 0.060561
158 1 0.936117 0.0640435 0.12295
161 1 9.91529e-05 0.12355 0.126755
169 1 0.249441 0.122239 0.128145
43 1 0.308647 0.122222 0.0629942
52 1 0.497879 0.188478 0.0610557
56 1 0.626737 0.184574 0.0634403
166 1 0.1941 0.189635 0.127664
201 1 0.250442 0.25333 0.123761
170 1 0.310361 0.185541 0.119653
205 1 0.37159 0.251693 0.119193
174 1 0.4326 0.189785 0.116827
209 1 0.502567 0.250521 0.122087
83 1 0.56241 0.247573 0.0624268
60 1 0.747797 0.187124 0.0631678
64 1 0.879001 0.189399 0.0628001
36 1 0.998541 0.182892 0.063103
67 1 0.0592946 0.247838 0.0644471
197 1 0.12269 0.249704 0.125752
198 1 0.179461 0.310425 0.12463
202 1 0.309889 0.314832 0.122015
88 1 0.627318 0.315796 0.0604136
87 1 0.69015 0.249995 0.0610014
91 1 0.813209 0.252172 0.0639911
96 1 0.874485 0.313438 0.0629769
95 1 0.938044 0.2507 0.0622016
194 1 0.0600731 0.309583 0.125677
72 1 0.122691 0.309151 0.0620522
233 1 0.251904 0.378623 0.12499
237 1 0.371252 0.371692 0.122719
241 1 0.501572 0.374428 0.123526
115 1 0.565742 0.374341 0.0592953
119 1 0.687456 0.377181 0.0630132
253 1 0.873549 0.379838 0.127328
68 1 0.994193 0.314628 0.0602637
99 1 0.062288 0.376411 0.0615355
108 1 0.249061 0.433765 0.0653401
107 1 0.30951 0.376266 0.0637486
234 1 0.316751 0.442812 0.12779
238 1 0.439337 0.434158 0.122474
246 1 0.682913 0.437023 0.125762
249 1 0.749243 0.37638 0.124688
250 1 0.813517 0.438547 0.124555
226 1 0.0608033 0.441811 0.127947
259 1 0.060294 0.00467325 0.313357
411 1 0.80672 0.00309187 0.436965
504 1 0.624712 0.439691 0.44001
116 1 0.503232 0.437982 0.0614508
1301 1 0.62198 0.50099 0.246206
242 1 0.560198 0.437018 0.12332
483 1 0.0574737 0.373914 0.436481
130 1 0.0625798 0.0612492 0.125687
484 1 0.995574 0.43138 0.437345
134 1 0.187785 0.0614566 0.1261
634 1 0.809305 0.438263 0.498226
138 1 0.313343 0.0614906 0.124191
261 1 0.122921 0.0018229 0.249449
1549 1 0.372645 0.498061 0.49893
150 1 0.690387 0.064724 0.124981
132 1 0.99773 0.0578989 0.187929
167 1 0.187193 0.123244 0.186103
142 1 0.440053 0.0613263 0.123938
177 1 0.502194 0.123974 0.122239
146 1 0.566771 0.0618804 0.123195
181 1 0.628026 0.124203 0.123813
183 1 0.691112 0.125059 0.187935
163 1 0.0605004 0.12467 0.185548
165 1 0.124905 0.119652 0.130356
172 1 0.252439 0.188926 0.188436
173 1 0.374668 0.12252 0.125947
175 1 0.435882 0.126935 0.184898
178 1 0.561801 0.183099 0.118636
182 1 0.685894 0.187296 0.126641
185 1 0.750736 0.124799 0.12389
187 1 0.811474 0.125338 0.189286
162 1 0.0621295 0.186095 0.125149
168 1 0.124339 0.182182 0.191063
203 1 0.309185 0.253215 0.184513
180 1 0.501141 0.186276 0.181327
213 1 0.626218 0.253019 0.12317
186 1 0.810783 0.189635 0.125326
190 1 0.938923 0.185439 0.122577
193 1 1.00036 0.249275 0.124242
200 1 0.124695 0.314916 0.190999
199 1 0.187642 0.249187 0.189195
206 1 0.439873 0.310631 0.12237
207 1 0.431739 0.250416 0.1826
212 1 0.5028 0.312687 0.184287
217 1 0.750844 0.253297 0.128074
221 1 0.87569 0.248777 0.125227
204 1 0.247458 0.313787 0.182648
235 1 0.307587 0.373626 0.187266
208 1 0.372787 0.312637 0.184732
239 1 0.438257 0.370645 0.185522
210 1 0.563611 0.312737 0.122941
245 1 0.623791 0.377335 0.123143
214 1 0.687798 0.310022 0.123415
220 1 0.751374 0.313626 0.189082
218 1 0.816078 0.315163 0.127746
224 1 0.878422 0.314127 0.188124
222 1 0.936003 0.31521 0.125078
229 1 0.121022 0.378719 0.125947
230 1 0.18964 0.437501 0.124174
231 1 0.185592 0.373694 0.187632
236 1 0.250047 0.436195 0.188748
240 1 0.377954 0.433575 0.188058
243 1 0.564355 0.377557 0.190393
248 1 0.623993 0.437722 0.186004
252 1 0.74958 0.438577 0.183837
251 1 0.811298 0.376206 0.188451
255 1 0.935976 0.377528 0.188639
225 1 0.00195191 0.373993 0.12581
228 1 1.00093 0.438014 0.188705
407 1 0.688086 -0.000875001 0.438028
244 1 0.50226 0.436215 0.189172
271 1 0.439731 -0.00057432 0.31407
1155 1 0.0643377 0.496018 0.192481
254 1 0.937113 0.439306 0.118987
511 1 0.933719 0.371407 0.44217
136 1 0.124324 0.0598362 0.189531
480 1 0.875635 0.306272 0.439225
151 1 0.689663 -0.000638843 0.180721
148 1 0.496588 0.0622498 0.186867
503 1 0.687411 0.373299 0.439629
499 1 0.566663 0.376194 0.438174
278 1 0.684782 0.0611411 0.245051
495 1 0.439481 0.378012 0.438383
403 1 0.564409 0.00320348 0.436614
289 1 -0.00216087 0.123653 0.250545
258 1 0.0587241 0.0625115 0.248895
140 1 0.255557 0.0591267 0.18697
144 1 0.378541 0.0608459 0.189978
152 1 0.624164 0.0589848 0.184573
309 1 0.623949 0.12267 0.244916
156 1 0.751606 0.062252 0.18651
160 1 0.868399 0.0647613 0.188637
290 1 0.0619567 0.187068 0.252241
293 1 0.126338 0.118942 0.249702
171 1 0.317503 0.127392 0.190321
179 1 0.563196 0.122326 0.180611
184 1 0.622083 0.188073 0.182611
310 1 0.682037 0.185881 0.248587
313 1 0.746547 0.123758 0.249533
191 1 0.932684 0.123589 0.190898
325 1 0.126772 0.248324 0.252619
294 1 0.188937 0.186814 0.251544
329 1 0.249787 0.251581 0.253486
298 1 0.314784 0.186263 0.250903
176 1 0.371791 0.186597 0.180291
215 1 0.689774 0.252852 0.183018
188 1 0.747305 0.186653 0.189244
219 1 0.814916 0.254991 0.187243
192 1 0.874669 0.187837 0.186713
164 1 2.62532e-05 0.187416 0.186161
195 1 0.0655029 0.247407 0.187823
326 1 0.191344 0.31594 0.251019
333 1 0.373115 0.248225 0.245583
334 1 0.439695 0.310064 0.254438
337 1 0.499214 0.250591 0.248815
211 1 0.561699 0.25025 0.187904
349 1 0.873909 0.252702 0.254483
223 1 0.937744 0.247033 0.185652
365 1 0.37968 0.372226 0.250361
338 1 0.56129 0.313004 0.247845
216 1 0.623927 0.313302 0.183971
342 1 0.688716 0.314695 0.248418
346 1 0.809113 0.307979 0.252695
196 1 1.0012 0.313048 0.189603
227 1 0.0609661 0.375216 0.189489
357 1 0.124226 0.377055 0.249951
362 1 0.322338 0.436455 0.253318
370 1 0.561495 0.436553 0.25024
247 1 0.688481 0.370665 0.185285
381 1 0.876269 0.37284 0.248597
354 1 0.0627458 0.436008 0.249908
232 1 0.124036 0.433863 0.190878
413 1 0.877897 0.0033074 0.378134
366 1 0.440016 0.437265 0.247654
267 1 0.319629 1.54915e-05 0.312409
89 1 0.751434 0.251874 0.00276254
1305 1 0.751997 0.499686 0.246187
256 1 0.874671 0.438044 0.187586
264 1 0.12454 0.0622751 0.316471
387 1 0.0625308 0.000114358 0.439357
436 1 0.502044 0.183681 0.436911
23 1 0.689272 -0.00168884 0.0657078
260 1 0.999461 0.0638853 0.314962
291 1 0.0607172 0.123516 0.313424
262 1 0.191995 0.0598102 0.246499
295 1 0.186777 0.121897 0.314378
268 1 0.252323 0.0614941 0.310339
266 1 0.318458 0.0616843 0.253687
301 1 0.375019 0.120931 0.252469
270 1 0.44141 0.0635841 0.253115
305 1 0.502069 0.125114 0.252323
274 1 0.562794 0.0606201 0.249045
282 1 0.812006 0.0619896 0.250179
288 1 0.873664 0.0624688 0.312643
286 1 0.939002 0.0610489 0.251052
297 1 0.24809 0.125438 0.248496
300 1 0.249321 0.186437 0.310088
304 1 0.372137 0.185838 0.313694
302 1 0.434709 0.185635 0.247978
311 1 0.687087 0.124792 0.309731
317 1 0.869496 0.125181 0.251094
292 1 0.99898 0.181304 0.313466
323 1 0.059356 0.253026 0.31133
296 1 0.128131 0.186261 0.31393
331 1 0.316524 0.251198 0.312622
335 1 0.43727 0.247483 0.309954
308 1 0.499815 0.186235 0.306221
306 1 0.564172 0.188355 0.250388
316 1 0.746908 0.188367 0.31389
314 1 0.807857 0.189663 0.247691
318 1 0.933042 0.182234 0.250975
328 1 0.125621 0.311098 0.312209
327 1 0.188958 0.250578 0.314914
341 1 0.623267 0.256394 0.243931
345 1 0.746691 0.248409 0.250749
321 1 0.999988 0.243705 0.247573
322 1 0.0661513 0.313679 0.249301
332 1 0.248376 0.314005 0.313293
330 1 0.312084 0.314062 0.244868
369 1 0.50283 0.373897 0.248816
348 1 0.742439 0.312201 0.31424
350 1 0.938088 0.31392 0.249332
355 1 0.0575901 0.371519 0.310015
360 1 0.128784 0.436822 0.31199
359 1 0.187704 0.376326 0.314767
361 1 0.250322 0.376757 0.25034
363 1 0.314416 0.371842 0.309359
373 1 0.626244 0.375629 0.245318
377 1 0.748212 0.373942 0.252742
353 1 0.999919 0.376298 0.247375
452 1 0.995171 0.308984 0.437638
435 1 0.564067 0.126461 0.437536
358 1 0.191041 0.435642 0.245814
364 1 0.254007 0.436731 0.311483
77 1 0.376305 0.250687 0.000297785
1409 1 0.996168 0.497296 0.374224
1163 1 0.315772 0.498616 0.187936
374 1 0.689889 0.435487 0.247553
378 1 0.810252 0.435915 0.250674
382 1 0.934102 0.437837 0.253381
121 1 0.751849 0.371125 0.00036195
475 1 0.812043 0.24482 0.437422
394 1 0.318778 0.0643257 0.372263
439 1 0.686248 0.1257 0.436877
398 1 0.437907 0.0657083 0.371441
105 1 0.248143 0.375398 -0.000114387
471 1 0.685476 0.250359 0.440178
444 1 0.745607 0.186566 0.443467
284 1 0.749737 0.0632782 0.308186
415 1 0.937859 -0.000516293 0.441066
417 1 0.999845 0.121194 0.377506
386 1 0.0635366 0.0630022 0.376718
421 1 0.129856 0.123074 0.377091
390 1 0.192235 0.0592898 0.374569
425 1 0.252328 0.123042 0.374122
272 1 0.380881 0.0625426 0.311229
303 1 0.437997 0.124857 0.313155
276 1 0.504342 0.0634071 0.31343
402 1 0.561895 0.0669456 0.377125
280 1 0.62839 0.0646327 0.314362
441 1 0.745538 0.119554 0.370388
410 1 0.814067 0.0605996 0.376773
414 1 0.938244 0.0612135 0.376732
299 1 0.310214 0.12612 0.310058
307 1 0.566589 0.123197 0.312623
312 1 0.623817 0.185544 0.315131
315 1 0.807912 0.125017 0.313158
445 1 0.870085 0.124104 0.376368
319 1 0.934073 0.123665 0.317321
418 1 0.0572904 0.18787 0.372296
422 1 0.188458 0.188031 0.374779
461 1 0.380823 0.250731 0.37836
430 1 0.443349 0.188587 0.375217
434 1 0.557371 0.187798 0.373642
343 1 0.679289 0.247684 0.308228
320 1 0.872805 0.187222 0.312938
446 1 0.933469 0.183387 0.375589
450 1 0.0591903 0.310944 0.375997
453 1 0.119434 0.246389 0.376812
457 1 0.254193 0.250649 0.37095
336 1 0.373676 0.312268 0.309109
340 1 0.504229 0.311689 0.3131
339 1 0.564958 0.251838 0.310073
347 1 0.8108 0.246914 0.310752
351 1 0.936108 0.242851 0.310205
454 1 0.18799 0.312563 0.374947
458 1 0.312152 0.311216 0.375732
493 1 0.37679 0.373828 0.368692
466 1 0.564197 0.313904 0.381609
344 1 0.620992 0.312647 0.313026
352 1 0.875579 0.312623 0.313724
324 1 0.998054 0.313152 0.310674
485 1 0.123796 0.373597 0.375122
489 1 0.249411 0.377791 0.377159
367 1 0.437695 0.37582 0.307709
372 1 0.499634 0.433655 0.313793
371 1 0.565976 0.375848 0.312148
375 1 0.683355 0.375795 0.311842
379 1 0.811168 0.373693 0.31186
384 1 0.871246 0.439156 0.310124
383 1 0.934452 0.375412 0.310626
356 1 0.996879 0.437537 0.313351
419 1 0.0656321 0.127448 0.436312
490 1 0.309836 0.438396 0.376891
368 1 0.379586 0.440275 0.313953
472 1 0.622001 0.312769 0.438476
376 1 0.625055 0.43663 0.308734
502 1 0.684027 0.433888 0.373326
380 1 0.749116 0.437179 0.312628
395 1 0.31494 0.00351019 0.434354
392 1 0.123173 0.0636409 0.43739
468 1 0.499782 0.310497 0.43871
263 1 0.185364 -0.000696814 0.30912
400 1 0.376389 0.0612509 0.436402
408 1 0.627098 0.064815 0.439402
86 1 0.692107 0.311607 0.00152979
396 1 0.247218 0.0590479 0.437749
427 1 0.3145 0.126006 0.437527
429 1 0.375652 0.124709 0.376501
437 1 0.622676 0.125624 0.376838
406 1 0.69024 0.0602465 0.37519
412 1 0.748888 0.065796 0.437727
416 1 0.873808 0.0618858 0.437367
388 1 -0.00394562 0.0612019 0.439267
423 1 0.191775 0.126742 0.437882
428 1 0.249845 0.189792 0.436564
426 1 0.31513 0.18589 0.378001
432 1 0.380214 0.193311 0.442141
433 1 0.499857 0.12623 0.377113
438 1 0.688696 0.185676 0.374601
447 1 0.93972 0.122334 0.435508
424 1 0.130976 0.187628 0.436769
455 1 0.189833 0.252379 0.439176
459 1 0.31269 0.25142 0.437394
465 1 0.502781 0.252273 0.37422
467 1 0.565216 0.25145 0.437644
469 1 0.62269 0.245911 0.374022
473 1 0.747981 0.248108 0.379202
442 1 0.813683 0.186867 0.372575
477 1 0.876257 0.250014 0.377318
420 1 0.998411 0.181708 0.440399
449 1 0.997872 0.249116 0.373566
451 1 0.0586039 0.248122 0.437347
462 1 0.4409 0.314481 0.373131
463 1 0.443917 0.251603 0.440071
470 1 0.686013 0.306551 0.375486
479 1 0.936071 0.244177 0.437423
456 1 0.124074 0.310016 0.432267
487 1 0.189353 0.370589 0.436578
460 1 0.251828 0.30761 0.438983
464 1 0.38089 0.31488 0.440943
497 1 0.503461 0.373382 0.378922
501 1 0.625037 0.373763 0.374617
476 1 0.750453 0.311693 0.438988
474 1 0.811978 0.310337 0.376405
478 1 0.937446 0.311951 0.375972
482 1 0.061823 0.434462 0.37149
486 1 0.185087 0.438327 0.381043
491 1 0.312714 0.371682 0.437554
496 1 0.376661 0.433372 0.439832
494 1 0.437649 0.432225 0.375979
498 1 0.561441 0.436163 0.379733
505 1 0.752448 0.373854 0.376655
509 1 0.873447 0.376449 0.376847
481 1 -0.00078258 0.373147 0.370691
431 1 0.43684 0.124245 0.437452
488 1 0.124324 0.432917 0.436799
22 1 0.683898 0.0578177 -0.00120028
448 1 0.874743 0.183617 0.437099
1431 1 0.689705 0.497568 0.438523
506 1 0.812357 0.437302 0.370837
401 1 0.501878 0.00491834 0.376965
510 1 0.938939 0.438227 0.374344
30 1 0.936549 0.060414 -0.0014397
19 1 0.56313 0.000235458 0.0644464
1435 1 0.812738 0.496843 0.431611
45 1 0.374836 0.124971 -0.00111172
404 1 0.501455 0.0637845 0.440121
1297 1 0.501081 0.496178 0.252527
443 1 0.806639 0.128424 0.437567
440 1 0.627404 0.189535 0.436454
33 1 0.000198669 0.125072 0.00249544
1283 1 0.0603201 0.498915 0.311842
279 1 0.691003 -0.000592251 0.309514
1183 1 0.93827 0.496756 0.188228
1429 1 0.624572 0.495758 0.369545
1291 1 0.316588 0.499535 0.310031
1299 1 0.55941 0.498672 0.311859
287 1 0.938205 0.00144702 0.316721
281 1 0.752462 0.000406827 0.247342
118 1 0.689821 0.436906 0.00159449
1303 1 0.688093 0.49929 0.308832
61 1 0.876458 0.126292 0.00238873
49 1 0.498285 0.124961 0.000450533
1287 1 0.191651 0.496092 0.312887
1157 1 0.125128 0.49698 0.127986
613 1 0.117752 0.372321 0.501044
397 1 0.378991 0.000367659 0.373158
1433 1 0.746619 0.494232 0.371202
1031 1 0.189055 0.501237 0.0660023
550 1 0.19056 0.191838 0.498071
131 1 0.0610175 -0.000229658 0.18817
1561 1 0.750115 0.496149 0.498361
41 1 0.24542 0.123946 0.00328214
1289 1 0.253728 0.499339 0.252814
1159 1 0.18955 0.497458 0.189716
557 1 0.375959 0.124047 0.501445
73 1 0.248681 0.249092 0.00107527
18 1 0.564511 0.0572525 -0.00178631
1027 1 0.0595917 0.501346 0.064183
1035 1 0.31101 0.499078 0.0693935
553 1 0.252453 0.124379 0.497691
102 1 0.184963 0.437263 0.00595748
577 1 0.995688 0.245846 0.496927
122 1 0.814986 0.435557 0.00238881
542 1 0.934019 0.0604427 0.497826
625 1 0.502495 0.377214 0.501069
513 1 0.00099835 0.00141666 0.500648
578 1 0.0600347 0.310244 0.494335
594 1 0.564457 0.313467 0.499495
58 1 0.811993 0.188456 0.00550774
90 1 0.812192 0.314705 0.000590634
101 1 0.123687 0.375868 0.0048099
549 1 0.128845 0.127563 0.498598
74 1 0.309147 0.317309 0.000407357
38 1 0.184205 0.187955 0.00293673
1033 1 0.253067 0.498346 0.00547378
617 1 0.247896 0.371831 0.495802
1545 1 0.249892 0.497638 0.500982
69 1 0.124472 0.252025 0.00230599
126 1 0.93852 0.440416 0.00237383
573 1 0.875315 0.122632 0.499246
554 1 0.314108 0.190938 0.499393
78 1 0.433626 0.315337 -0.00168985
81 1 0.495204 0.25129 -0.000258496
85 1 0.626318 0.252502 0.0036059
46 1 0.4368 0.185471 0.00160945
562 1 0.566736 0.186299 0.503107
996 1 0.00203641 0.441596 0.941174
546 1 0.0604313 0.185689 0.498817
528 1 0.372619 0.0635274 0.560258
1665 1 1.00204 0.499666 0.623325
1681 1 0.497197 0.49991 0.625445
558 1 0.443191 0.19097 0.502854
547 1 0.0689658 0.125075 0.56334
520 1 0.124812 0.0616855 0.567483
521 1 0.249461 -0.000339497 0.499596
524 1 0.249734 0.0616466 0.562989
555 1 0.312884 0.125406 0.559765
559 1 0.438851 0.124608 0.561175
927 1 0.937285 -0.00138478 0.933263
522 1 0.311078 0.0591456 0.496709
775 1 0.189258 0.00212645 0.811174
771 1 0.0634003 0.0072975 0.813163
540 1 0.745404 0.0632883 0.567247
590 1 0.441208 0.314485 0.503644
544 1 0.874725 0.0639761 0.563733
543 1 0.939012 0.00157304 0.560755
551 1 0.188148 0.12647 0.558797
534 1 0.688926 0.0599278 0.500741
575 1 0.934926 0.119972 0.563002
1539 1 0.0601128 0.501797 0.5623
552 1 0.123483 0.186947 0.56118
583 1 0.189 0.252516 0.56349
556 1 0.250891 0.189008 0.566141
925 1 0.874675 0.00239715 0.873426
560 1 0.376073 0.18458 0.559433
564 1 0.502995 0.184858 0.564637
595 1 0.563672 0.251452 0.560684
1673 1 0.247687 0.49872 0.622706
82 1 0.565263 0.311706 1.00174
655 1 0.435734 -0.000763512 0.685199
1821 1 0.876094 0.497666 0.745741
785 1 0.498062 0.00105751 0.753067
548 1 0.998484 0.181988 0.560328
579 1 0.0586236 0.246338 0.560903
584 1 0.119768 0.309673 0.558752
587 1 0.315798 0.247039 0.563198
1949 1 0.877744 0.499421 0.872744
596 1 0.503486 0.314264 0.561328
2 1 0.0642243 0.063074 1.00259
604 1 0.746623 0.313743 0.566386
1683 1 0.563003 0.50194 0.683183
611 1 0.0621828 0.375006 0.563982
615 1 0.184804 0.374245 0.558458
1679 1 0.438709 0.500052 0.690285
619 1 0.313168 0.374001 0.560306
1559 1 0.686722 0.49778 0.560947
1943 1 0.687157 0.501913 0.9387
626 1 0.557639 0.442748 0.499257
915 1 0.561796 -0.00114416 0.936968
643 1 0.0631168 0.000261649 0.684384
639 1 0.938695 0.374102 0.561908
787 1 0.559963 0.00541516 0.81108
1823 1 0.936484 0.496168 0.812352
580 1 0.00191804 0.310046 0.559177
1921 1 0.00291237 0.499736 0.872151
535 1 0.689168 0.0040556 0.565862
538 1 0.809962 0.0663074 0.504046
1563 1 0.808309 0.500385 0.562144
905 1 0.250984 0.00244044 0.874532
640 1 0.873645 0.435902 0.562416
1945 1 0.750436 0.494075 0.878168
911 1 0.436044 -0.00200579 0.936043
616 1 0.12263 0.441679 0.557848
620 1 0.250162 0.436807 0.558237
659 1 0.554624 -0.000794813 0.685742
569 1 0.745664 0.123987 0.501894
669 1 0.873218 -0.00101234 0.624997
586 1 0.315557 0.316761 0.4987
519 1 0.18769 -0.000299815 0.562521
650 1 0.31369 0.0595702 0.624558
654 1 0.436259 0.0629096 0.623747
532 1 0.498358 0.0600347 0.56136
658 1 0.55715 0.059814 0.622946
536 1 0.622181 0.0634322 0.564
662 1 0.68438 0.0667027 0.62369
901 1 0.127572 0.00284059 0.876081
666 1 0.811566 0.0657184 0.625787
516 1 1.00113 0.0623539 0.562512
673 1 1.00101 0.12514 0.62579
646 1 0.185756 0.0641859 0.625292
563 1 0.562008 0.126324 0.566193
571 1 0.807194 0.124664 0.563462
670 1 0.933303 0.0616862 0.624396
674 1 0.0638771 0.187776 0.631559
677 1 0.128197 0.127371 0.62563
681 1 0.249935 0.123671 0.629098
682 1 0.317525 0.188277 0.623218
685 1 0.373467 0.125354 0.62429
690 1 0.562253 0.193794 0.626255
568 1 0.625172 0.191936 0.562898
567 1 0.689012 0.124994 0.564983
576 1 0.874322 0.184595 0.563328
705 1 0.00194678 0.245044 0.622488
678 1 0.190567 0.187916 0.625684
713 1 0.251215 0.251086 0.625199
717 1 0.375383 0.255113 0.627712
591 1 0.44076 0.252962 0.565999
599 1 0.684578 0.250317 0.566832
572 1 0.75114 0.187834 0.564203
603 1 0.808593 0.252179 0.563717
709 1 0.129037 0.248709 0.622291
588 1 0.247537 0.312902 0.564384
714 1 0.31242 0.315311 0.625878
592 1 0.376575 0.313649 0.564534
600 1 0.626178 0.312226 0.561566
608 1 0.874123 0.308942 0.561141
607 1 0.939742 0.247239 0.558588
706 1 0.0604416 0.310531 0.620474
741 1 0.125677 0.369826 0.623078
745 1 0.246551 0.378221 0.622535
623 1 0.439148 0.37551 0.56522
737 1 0.00144306 0.377133 0.62573
624 1 0.371331 0.437363 0.564726
749 1 0.376744 0.376488 0.627776
628 1 0.497726 0.440454 0.55969
627 1 0.562414 0.375948 0.562729
631 1 0.684287 0.375009 0.56826
635 1 0.807158 0.373318 0.568148
765 1 0.875978 0.372975 0.622017
612 1 -0.000302737 0.436308 0.55982
1693 1 0.871921 0.497998 0.624232
742 1 0.182564 0.437179 0.62158
789 1 0.623876 0.00236622 0.750587
746 1 0.313637 0.436064 0.626796
671 1 0.939277 0.00133978 0.684438
665 1 0.75008 0.00109504 0.62456
632 1 0.621702 0.439031 0.564772
636 1 0.749687 0.436057 0.557461
642 1 0.0657068 0.0621173 0.6277
657 1 0.497905 -0.000354516 0.622709
799 1 0.939812 0.000775473 0.810316
656 1 0.375973 0.0612993 0.688626
994 1 0.059831 0.437957 0.872544
664 1 0.619323 0.0653759 0.683873
992 1 0.872051 0.314243 0.94108
672 1 0.874186 0.0690588 0.685382
644 1 0.995568 0.0626736 0.686854
675 1 0.0606176 0.124833 0.687957
648 1 0.123658 0.0645967 0.685867
652 1 0.250999 0.0594311 0.688936
683 1 0.315631 0.128206 0.688226
660 1 0.499914 0.0658528 0.681939
697 1 0.749506 0.127197 0.631617
699 1 0.809845 0.129462 0.686861
703 1 0.938381 0.121909 0.68812
676 1 0.998214 0.187737 0.687864
680 1 0.124333 0.185197 0.687949
679 1 0.18842 0.125413 0.68813
689 1 0.494379 0.122118 0.623635
691 1 0.565095 0.129008 0.686594
693 1 0.622518 0.130189 0.622587
696 1 0.626327 0.187869 0.690254
694 1 0.686709 0.1886 0.6254
698 1 0.813555 0.188187 0.623749
701 1 0.874889 0.122654 0.62403
702 1 0.938162 0.182215 0.620922
684 1 0.249963 0.189623 0.689005
715 1 0.313864 0.255187 0.69086
688 1 0.38069 0.189632 0.690871
686 1 0.437945 0.187785 0.62344
692 1 0.497743 0.189103 0.686311
723 1 0.568054 0.248659 0.691192
725 1 0.62155 0.249303 0.629416
733 1 0.876702 0.252569 0.624403
735 1 0.93681 0.248123 0.684109
707 1 0.0631537 0.251652 0.688539
716 1 0.25017 0.311802 0.687791
720 1 0.374097 0.313148 0.691687
718 1 0.444128 0.313362 0.625763
721 1 0.499575 0.253023 0.627857
724 1 0.504325 0.309386 0.690095
722 1 0.561551 0.309515 0.623168
729 1 0.748211 0.252898 0.624705
708 1 -0.00181882 0.31459 0.685098
710 1 0.188865 0.312814 0.624657
743 1 0.188583 0.373238 0.686837
747 1 0.312863 0.373684 0.690231
753 1 0.501227 0.375194 0.629519
726 1 0.685174 0.313966 0.630627
761 1 0.750131 0.373545 0.629587
730 1 0.810698 0.312428 0.626713
734 1 0.940979 0.312281 0.621796
767 1 0.940906 0.372087 0.68582
739 1 0.0649294 0.376169 0.682378
748 1 0.248851 0.439477 0.688725
752 1 0.372953 0.440065 0.690697
754 1 0.55922 0.43799 0.624862
757 1 0.62344 0.374663 0.625396
758 1 0.686319 0.435995 0.625817
762 1 0.809762 0.439642 0.624946
766 1 0.939235 0.434555 0.622789
738 1 0.0672826 0.437213 0.622406
920 1 0.621757 0.0627147 0.934048
955 1 0.812048 0.121178 0.937226
983 1 0.690414 0.251068 0.938211
750 1 0.434882 0.440177 0.627325
931 1 0.0629754 0.124153 0.939908
1000 1 0.12419 0.441082 0.936321
638 1 0.934571 0.43796 0.501455
1017 1 0.749427 0.376645 0.880127
1020 1 0.752576 0.436933 0.942826
1007 1 0.43864 0.384203 0.939584
782 1 0.437973 0.0637711 0.755211
1016 1 0.626614 0.436512 0.936629
956 1 0.751458 0.186161 0.939789
790 1 0.68885 0.0693969 0.752767
668 1 0.750648 0.065087 0.686727
1015 1 0.688229 0.373532 0.938538
908 1 0.249317 0.0645584 0.936324
770 1 0.0601783 0.0656602 0.753829
805 1 0.124222 0.127299 0.751283
778 1 0.314313 0.0595776 0.751538
695 1 0.684911 0.128806 0.688567
829 1 0.873097 0.125492 0.748838
801 1 0.00222186 0.123738 0.750598
809 1 0.251578 0.125914 0.748644
810 1 0.309729 0.191799 0.749056
813 1 0.378978 0.124682 0.749519
687 1 0.438872 0.124559 0.68632
821 1 0.624291 0.124571 0.753147
822 1 0.686718 0.186718 0.755902
700 1 0.747654 0.186728 0.686699
704 1 0.876124 0.188391 0.682955
833 1 1.0004 0.252487 0.749356
802 1 0.0602216 0.189128 0.753511
837 1 0.127394 0.248197 0.749408
806 1 0.192786 0.189562 0.750449
841 1 0.251524 0.254615 0.751059
845 1 0.373775 0.250905 0.755352
719 1 0.435778 0.251667 0.688901
818 1 0.562521 0.191314 0.751387
853 1 0.628939 0.249134 0.753639
727 1 0.690285 0.247602 0.687426
731 1 0.814033 0.249486 0.686096
826 1 0.810421 0.187248 0.748738
712 1 0.123989 0.313956 0.684382
711 1 0.190668 0.251503 0.687257
846 1 0.437378 0.314119 0.751148
728 1 0.625934 0.315842 0.694891
854 1 0.691929 0.309852 0.74892
732 1 0.750902 0.31213 0.690359
834 1 0.0644 0.313708 0.749556
869 1 0.127765 0.377955 0.746315
842 1 0.312612 0.316539 0.757261
881 1 0.499701 0.373756 0.748613
755 1 0.562995 0.376797 0.689073
759 1 0.686165 0.377106 0.693542
763 1 0.813466 0.370417 0.689697
736 1 0.876269 0.308181 0.690932
862 1 0.936861 0.304317 0.750169
865 1 0.00260387 0.372838 0.747887
744 1 0.125838 0.437242 0.684712
873 1 0.254082 0.377878 0.748579
877 1 0.375086 0.372518 0.752646
751 1 0.433925 0.378725 0.691887
756 1 0.498407 0.439186 0.688187
760 1 0.622828 0.439733 0.688562
764 1 0.744499 0.435188 0.691675
894 1 0.938682 0.434931 0.747336
740 1 0.00283119 0.434903 0.684264
866 1 0.0664272 0.437188 0.745869
974 1 0.435523 0.309116 0.875941
936 1 0.1225 0.186712 0.935985
1011 1 0.564197 0.370453 0.93897
1003 1 0.313122 0.380223 0.93617
999 1 0.18662 0.376246 0.937286
995 1 0.0661303 0.378952 0.942734
1012 1 0.506732 0.438962 0.936937
768 1 0.875414 0.43332 0.691254
772 1 0.999018 0.0647312 0.813667
1006 1 0.43575 0.440524 0.87518
1935 1 0.439806 0.499718 0.936902
788 1 0.501409 0.0635492 0.811378
962 1 0.0647474 0.316717 0.869594
605 1 0.870293 0.246063 0.501222
800 1 0.874697 0.0649159 0.813307
803 1 0.0630469 0.127449 0.810385
774 1 0.190615 0.0628653 0.746884
780 1 0.248353 0.0665051 0.808958
811 1 0.316929 0.123802 0.809666
815 1 0.436097 0.129577 0.817436
786 1 0.561211 0.0660094 0.746894
796 1 0.748623 0.0658537 0.81788
794 1 0.811802 0.0659207 0.750847
798 1 0.938216 0.065713 0.751764
808 1 0.125806 0.190207 0.812217
812 1 0.251454 0.185508 0.813932
816 1 0.37347 0.190172 0.815641
814 1 0.43531 0.18965 0.753435
817 1 0.500145 0.124169 0.752216
819 1 0.560906 0.124503 0.815487
823 1 0.685405 0.128785 0.814264
825 1 0.750079 0.125933 0.753682
828 1 0.748852 0.191945 0.812304
832 1 0.873879 0.187705 0.814705
830 1 0.937807 0.182823 0.750617
831 1 0.936516 0.123956 0.814212
835 1 0.0623577 0.251783 0.810205
839 1 0.185908 0.24643 0.812926
843 1 0.310875 0.248431 0.814876
847 1 0.436357 0.245582 0.814087
849 1 0.495064 0.251139 0.750115
851 1 0.556541 0.252149 0.814143
824 1 0.621227 0.187952 0.81258
855 1 0.689523 0.252228 0.814888
857 1 0.748301 0.248179 0.748742
859 1 0.811298 0.251446 0.819287
861 1 0.873851 0.245577 0.752979
836 1 -0.00848073 0.310381 0.812298
840 1 0.130261 0.308812 0.811576
850 1 0.562364 0.312568 0.753213
856 1 0.624611 0.312715 0.811563
858 1 0.810898 0.307272 0.751416
838 1 0.187783 0.315733 0.750026
844 1 0.249456 0.316652 0.817135
848 1 0.373322 0.313503 0.814124
883 1 0.560316 0.378105 0.812633
885 1 0.625085 0.378998 0.753312
887 1 0.692552 0.373351 0.8098
893 1 0.876164 0.372159 0.751529
867 1 0.0606372 0.37737 0.810905
872 1 0.120648 0.436278 0.812636
870 1 0.189912 0.44009 0.747875
875 1 0.310328 0.37638 0.813083
880 1 0.373158 0.43652 0.812291
878 1 0.436529 0.434275 0.751409
882 1 0.557785 0.439301 0.749288
889 1 0.753318 0.375006 0.751734
895 1 0.936624 0.372733 0.808482
967 1 0.184743 0.251527 0.938619
647 1 0.186336 0.00152753 0.690522
876 1 0.250271 0.44224 0.809637
874 1 0.310027 0.441482 0.750772
988 1 0.754255 0.314364 0.938116
886 1 0.689398 0.435545 0.754416
892 1 0.753873 0.438768 0.814127
1004 1 0.249518 0.436519 0.940328
890 1 0.812378 0.437646 0.754034
896 1 0.875254 0.437737 0.810972
1008 1 0.374091 0.442629 0.935783
951 1 0.686316 0.122282 0.939164
776 1 0.131193 0.0646705 0.813837
910 1 0.442405 0.0620056 0.880116
952 1 0.625698 0.187616 0.940834
914 1 0.55726 0.0621677 0.875559
947 1 0.559778 0.125525 0.939983
918 1 0.683034 0.0649905 0.873305
926 1 0.934871 0.0634825 0.875596
898 1 0.0618377 0.0634535 0.87601
906 1 0.310727 0.0641819 0.873599
784 1 0.376908 0.0620197 0.817215
792 1 0.62043 0.0614978 0.814083
922 1 0.811767 0.0630835 0.876068
807 1 0.189089 0.127082 0.811499
937 1 0.25187 0.126509 0.875713
938 1 0.313885 0.183825 0.879283
942 1 0.438287 0.187723 0.876369
945 1 0.498534 0.12587 0.880641
949 1 0.623336 0.128454 0.873756
827 1 0.812186 0.12991 0.814602
954 1 0.810919 0.188995 0.877674
957 1 0.876309 0.127744 0.876225
804 1 0.999874 0.186622 0.816463
929 1 -0.00194334 0.125039 0.877712
965 1 0.119619 0.253532 0.875426
820 1 0.502563 0.187308 0.815931
977 1 0.494671 0.249962 0.87981
981 1 0.618627 0.24724 0.877974
863 1 0.93745 0.243363 0.813841
961 1 0.999952 0.251467 0.876256
966 1 0.187361 0.312671 0.879115
969 1 0.251944 0.245557 0.877418
970 1 0.310876 0.311659 0.875492
973 1 0.372011 0.249659 0.873811
852 1 0.498139 0.318385 0.81271
978 1 0.55954 0.307677 0.87714
985 1 0.748725 0.250706 0.878258
864 1 0.877867 0.307182 0.813458
989 1 0.878185 0.247533 0.878188
997 1 0.127239 0.376323 0.874548