
Host: log-2.hpc.nyu.edu

Timers On : Mon Nov 28 14:48:14 2022
Timers Off: Mon Nov 28 14:48:14 2022

Wall Time:        0.34 seconds

                                                       Time (seconds)
Module                                       User      System        Wall        Calls

--------------------------------------------------------------------------------------

**************************************************************************************
